/*--------------------------------*- C++ -*----------------------------------*\
| =========                 |                                                 |
| \\      /  F ield         | OpenFOAM: The Open Source CFD Toolbox           |
|  \\    /   O peration     | Version:  2312                                  |
|   \\  /    A nd           | Website:  www.openfoam.com                      |
|    \\/     M anipulation  |                                                 |
\*---------------------------------------------------------------------------*/
FoamFile
{
    version     2.0;
    format      ascii;
    arch        "LSB;label=32;scalar=64";
    class       volScalarField;
    location    "650";
    object      alphat;
}
// * * * * * * * * * * * * * * * * * * * * * * * * * * * * * * * * * * * * * //

dimensions      [1 -1 -1 0 0 0 0];

internalField   nonuniform List<scalar> 
27000
(
0.00394583
0.00669727
0.00935851
0.0117444
0.014064
0.0162282
0.0181918
0.0198496
0.021275
0.0224928
0.023504
0.0243054
0.0249
0.0252953
0.0254936
0.0254956
0.0253012
0.0249096
0.0243178
0.023516
0.0225059
0.0212889
0.0198633
0.0182044
0.0162385
0.0140708
0.0117469
0.00935666
0.00669341
0.00394315
0.00574467
0.00127619
0.00515277
0.00907109
0.0131477
0.0170206
0.0206745
0.0240685
0.02714
0.0298651
0.0322142
0.0341632
0.0356759
0.0367066
0.0372258
0.0372197
0.0366894
0.0356503
0.0341352
0.0321908
0.0298438
0.027121
0.0240526
0.0206632
0.0170122
0.0131411
0.00906756
0.00514923
0.00127405
0.0057411
0.00921988
0.00710792
0.0145949
0.0262428
0.0369301
0.0462888
0.0548264
0.0627983
0.070024
0.0763755
0.081776
0.0861848
0.089567
0.0918561
0.093003
0.0929864
0.0918104
0.0895062
0.0861351
0.0817483
0.076369
0.0700384
0.0628309
0.054871
0.0463314
0.0369604
0.0262852
0.0146291
0.00709472
0.00921729
0.0121552
0.0108311
0.0262502
0.0528987
0.078366
0.0964496
0.109984
0.121037
0.130281
0.137908
0.144133
0.149042
0.152703
0.155139
0.156351
0.156342
0.155118
0.152689
0.149057
0.144189
0.138004
0.130403
0.12117
0.110091
0.0965064
0.0784073
0.0530001
0.0263315
0.0108265
0.012156
0.0149284
0.0144733
0.0371048
0.0765732
0.113518
0.13928
0.156125
0.167986
0.176805
0.183148
0.188122
0.191909
0.194659
0.196458
0.197347
0.197348
0.196466
0.194688
0.19197
0.188216
0.183263
0.176897
0.168087
0.156201
0.139325
0.113583
0.0767144
0.0371972
0.0144709
0.0149333
0.0174958
0.0184124
0.047941
0.0956963
0.138224
0.167592
0.185598
0.196942
0.204415
0.20943
0.212929
0.215407
0.217122
0.21821
0.218741
0.218745
0.218224
0.217154
0.215463
0.213009
0.209524
0.204506
0.197028
0.185683
0.167723
0.13836
0.0958643
0.0480303
0.0184089
0.0175041
0.019833
0.022543
0.058746
0.111924
0.156167
0.185435
0.20306
0.21336
0.219457
0.22314
0.225424
0.226874
0.227796
0.228347
0.228607
0.22861
0.228357
0.227818
0.226914
0.22548
0.223208
0.21953
0.213436
0.203148
0.185553
0.156313
0.112074
0.0587932
0.022532
0.0198435
0.0219247
0.0267243
0.0692108
0.125894
0.170154
0.197613
0.213565
0.222407
0.227202
0.229781
0.231162
0.231904
0.232302
0.232508
0.232597
0.232598
0.232514
0.232316
0.23193
0.231201
0.229831
0.227261
0.222472
0.213644
0.197708
0.170244
0.125989
0.0692229
0.0267076
0.0219368
0.0237378
0.0308385
0.0789891
0.137826
0.18111
0.206234
0.220136
0.227416
0.231047
0.232761
0.23351
0.233798
0.233882
0.23389
0.233883
0.233883
0.233893
0.23389
0.233815
0.233537
0.232797
0.23109
0.227465
0.22019
0.206283
0.181118
0.137854
0.0789592
0.0308118
0.0237529
0.0252897
0.0347254
0.0878706
0.147835
0.188926
0.212207
0.224307
0.230216
0.232891
0.233963
0.23429
0.234305
0.234218
0.234127
0.234074
0.234074
0.234129
0.234223
0.234315
0.234306
0.233985
0.232917
0.230244
0.224335
0.21223
0.188935
0.147814
0.0878049
0.0346926
0.0253043
0.0265818
0.0382279
0.0956353
0.156216
0.195378
0.216573
0.227044
0.231812
0.233745
0.234359
0.234418
0.234282
0.234115
0.233984
0.233915
0.233915
0.233984
0.234116
0.234285
0.234424
0.234367
0.233753
0.231818
0.227046
0.216567
0.195352
0.15615
0.0955442
0.0381923
0.0265953
0.0276144
0.0412092
0.102067
0.162913
0.200398
0.219782
0.228885
0.232748
0.234128
0.234429
0.234323
0.234111
0.233915
0.233777
0.233707
0.233706
0.233775
0.233912
0.234108
0.234319
0.234423
0.234118
0.232732
0.228862
0.219746
0.200338
0.162816
0.101961
0.0411725
0.0276267
0.0283882
0.0435533
0.107014
0.16794
0.20406
0.222041
0.230106
0.233302
0.234294
0.234391
0.23419
0.233944
0.233744
0.233611
0.233546
0.233545
0.233608
0.233738
0.233935
0.234177
0.234373
0.23427
0.23327
0.230063
0.221983
0.203976
0.16782
0.106901
0.0435167
0.0283995
0.0289036
0.0451687
0.110373
0.171333
0.206459
0.22348
0.230853
0.233616
0.234363
0.234338
0.234086
0.233829
0.233633
0.233509
0.23345
0.233448
0.233504
0.233625
0.233816
0.234068
0.234312
0.234329
0.233573
0.230799
0.22341
0.206366
0.171211
0.110258
0.0451328
0.0289141
0.0291609
0.0459924
0.112068
0.17303
0.207644
0.224179
0.231209
0.233758
0.234388
0.234306
0.234033
0.233773
0.233581
0.233463
0.233407
0.233405
0.233458
0.233572
0.233758
0.234012
0.234277
0.23435
0.23371
0.231149
0.224105
0.207548
0.172911
0.111956
0.0459572
0.0291711
0.0291605
0.0459925
0.112069
0.173031
0.207643
0.224179
0.231208
0.233759
0.234389
0.234307
0.234035
0.233774
0.233583
0.233464
0.233408
0.233407
0.233459
0.233573
0.233759
0.234014
0.234279
0.234352
0.233712
0.23115
0.224106
0.20755
0.172913
0.111958
0.0459575
0.0291707
0.0289023
0.045169
0.110374
0.171334
0.206458
0.223479
0.230853
0.233617
0.234365
0.234341
0.23409
0.233832
0.233636
0.233512
0.233453
0.233452
0.233508
0.233629
0.233821
0.234073
0.234317
0.234334
0.233576
0.230801
0.223412
0.206369
0.171217
0.110266
0.0451337
0.0289127
0.0283862
0.0435537
0.107018
0.167943
0.20406
0.22204
0.230107
0.233305
0.234298
0.234395
0.234195
0.233949
0.233748
0.233615
0.233551
0.23355
0.233613
0.233744
0.233943
0.234185
0.23438
0.234276
0.233275
0.230067
0.221986
0.203982
0.16783
0.106912
0.0435181
0.0283971
0.027612
0.0412097
0.102073
0.162919
0.200401
0.219785
0.228888
0.232752
0.234133
0.234435
0.234329
0.234116
0.233919
0.23378
0.23371
0.233711
0.233781
0.233919
0.234116
0.234328
0.234432
0.234126
0.232739
0.228867
0.219751
0.200346
0.162831
0.101977
0.0411743
0.0276235
0.026579
0.0382284
0.0956456
0.156229
0.195388
0.216581
0.227051
0.23182
0.233753
0.234367
0.234424
0.234286
0.234118
0.233986
0.233917
0.233918
0.233989
0.234122
0.234293
0.234434
0.234377
0.233762
0.231826
0.227053
0.216574
0.195364
0.15617
0.0955641
0.0381944
0.0265912
0.0252868
0.0347258
0.0878865
0.147858
0.188946
0.212223
0.224321
0.230228
0.232901
0.233971
0.234295
0.234307
0.234218
0.234126
0.234072
0.234074
0.23413
0.234227
0.234321
0.234315
0.233995
0.232928
0.230254
0.224346
0.212244
0.188954
0.147838
0.0878281
0.0346948
0.0252995
0.023735
0.0308387
0.0790113
0.137863
0.181142
0.206262
0.220159
0.227434
0.23106
0.23277
0.233514
0.233797
0.233878
0.233884
0.233876
0.233878
0.23389
0.23389
0.233819
0.233544
0.232807
0.231102
0.227479
0.220207
0.206307
0.181154
0.137886
0.0789835
0.0308129
0.0237476
0.0219221
0.026724
0.069239
0.125947
0.170207
0.197658
0.2136
0.222432
0.22722
0.229791
0.231166
0.231902
0.232294
0.232497
0.232585
0.232587
0.232506
0.232313
0.231932
0.231208
0.229843
0.227278
0.222494
0.213672
0.197744
0.170291
0.12603
0.0692484
0.0267063
0.0219321
0.0198309
0.0225422
0.0587803
0.111994
0.156239
0.185496
0.203108
0.213395
0.219482
0.223155
0.22543
0.226872
0.227787
0.228334
0.228593
0.228597
0.228347
0.227814
0.226916
0.22549
0.223227
0.219557
0.213472
0.203194
0.185609
0.156374
0.112128
0.0588242
0.0225307
0.0198388
0.0174937
0.0184127
0.0479833
0.0957759
0.138307
0.16767
0.185659
0.19699
0.204452
0.209457
0.212944
0.215411
0.217117
0.2182
0.218729
0.218734
0.218218
0.217154
0.215472
0.213028
0.209555
0.20455
0.197086
0.185755
0.167806
0.138444
0.0959338
0.0480667
0.0184087
0.0174995
0.0149263
0.014472
0.0371436
0.0766516
0.113599
0.139356
0.156195
0.168047
0.176854
0.183189
0.18815
0.191923
0.194664
0.196457
0.197345
0.197348
0.196472
0.194701
0.191992
0.18825
0.183312
0.176963
0.168167
0.156295
0.139431
0.113689
0.0767953
0.037231
0.0144688
0.0149291
0.0121529
0.0108281
0.0262801
0.0529621
0.0784331
0.0965192
0.110058
0.121108
0.130342
0.137955
0.144166
0.149063
0.152717
0.15515
0.156364
0.15636
0.155143
0.15272
0.149097
0.144238
0.138064
0.130476
0.121255
0.110187
0.0966086
0.0785075
0.0530777
0.0263587
0.0108229
0.0121524
0.00921774
0.00710345
0.0146039
0.0262672
0.0369602
0.0463247
0.0548618
0.0628319
0.0700526
0.0763976
0.0817919
0.0861971
0.0895781
0.0918693
0.0930204
0.0930091
0.0918388
0.0895398
0.0861723
0.0817879
0.0764131
0.0700872
0.0628837
0.054928
0.0463862
0.0370076
0.0263189
0.0146375
0.00709213
0.00921476
0.00574303
0.00127542
0.00515043
0.00906905
0.0131459
0.0170193
0.0206731
0.0240662
0.0271369
0.0298614
0.0322103
0.0341601
0.0356738
0.0367058
0.0372263
0.0372218
0.0366929
0.0356548
0.0341397
0.0321936
0.0298464
0.0271237
0.0240554
0.0206666
0.0170146
0.0131415
0.00906621
0.0051464
0.00127323
0.00573932
0.00394485
0.00669559
0.00935669
0.011743
0.0140628
0.0162272
0.0181909
0.0198486
0.0212738
0.0224912
0.023502
0.0243026
0.0248966
0.0252914
0.0254891
0.0254906
0.0252958
0.0249039
0.0243119
0.0235109
0.0225009
0.0212838
0.0198583
0.0181996
0.0162341
0.0140669
0.0117436
0.00935406
0.00669165
0.00394223
0.00357742
0.00611378
0.00871201
0.0110702
0.0134263
0.0156548
0.0177122
0.019487
0.02103
0.0223531
0.0234605
0.0243593
0.0250443
0.0255024
0.0257308
0.0257285
0.0254955
0.0250329
0.0243443
0.0234475
0.0223379
0.0210113
0.0194605
0.0176868
0.0156348
0.0134145
0.0110687
0.00871946
0.00612603
0.00358564
0.00514585
0.00164325
0.00752113
0.0111293
0.014724
0.0177309
0.020283
0.0226536
0.0247445
0.0265486
0.0280668
0.0292814
0.0301851
0.0307879
0.0310925
0.0310982
0.030804
0.0302081
0.0293029
0.0280798
0.0265574
0.0247537
0.0226703
0.0203249
0.0177814
0.0147747
0.0111741
0.00754961
0.00166295
0.00515903
0.00871128
0.0103894
0.0132218
0.0166382
0.0217782
0.0271946
0.03224
0.0366814
0.0407586
0.0444363
0.0476069
0.0501784
0.0520656
0.0533253
0.0539719
0.0540044
0.0534188
0.0522007
0.0502741
0.0476828
0.044497
0.0408028
0.0367014
0.0322288
0.0271663
0.0217595
0.0166193
0.0132204
0.0104875
0.00872282
0.01158
0.0135812
0.0178307
0.0254267
0.0354039
0.0460269
0.0556226
0.0641199
0.0717162
0.0786286
0.0845113
0.0892232
0.092699
0.0949967
0.0961707
0.0962441
0.0952071
0.0930132
0.0895845
0.0848951
0.0789803
0.0719656
0.064185
0.0555444
0.0458547
0.0352038
0.0253274
0.017807
0.0136626
0.0115827
0.0144167
0.0160364
0.0226059
0.0354182
0.0535605
0.0725916
0.0888507
0.101897
0.112576
0.12182
0.129281
0.135078
0.139169
0.141801
0.143109
0.143153
0.14192
0.139338
0.135271
0.129522
0.122005
0.112651
0.101756
0.0884929
0.0721265
0.053221
0.0352103
0.0225318
0.0161053
0.0144087
0.0171215
0.0182226
0.0283669
0.0465669
0.0723187
0.0987165
0.121067
0.137465
0.149371
0.158539
0.165641
0.17099
0.174763
0.177162
0.178337
0.17836
0.177224
0.174845
0.171073
0.165711
0.158545
0.149287
0.137265
0.12067
0.0982219
0.0718861
0.0463785
0.0282817
0.0182747
0.0171061
0.0196334
0.0205494
0.0338229
0.0580205
0.0901496
0.12146
0.146111
0.163654
0.175855
0.184515
0.190788
0.195304
0.19842
0.200372
0.201317
0.201329
0.200403
0.198457
0.195332
0.190792
0.184478
0.17577
0.163506
0.14587
0.121103
0.0898791
0.0579569
0.0337981
0.0205566
0.0196197
0.0219281
0.0230322
0.0389937
0.0689398
0.105732
0.13925
0.164308
0.181773
0.193551
0.201473
0.206859
0.210526
0.212959
0.214446
0.215154
0.215161
0.214461
0.212975
0.210532
0.206845
0.201435
0.193487
0.181677
0.164168
0.139092
0.105687
0.0690353
0.0389982
0.0230357
0.0219143
0.024031
0.0253531
0.0439375
0.0790895
0.119081
0.152997
0.177519
0.194165
0.205066
0.212094
0.216613
0.219517
0.221348
0.222427
0.222929
0.222932
0.222434
0.221353
0.219513
0.216596
0.212062
0.205022
0.194108
0.177456
0.152972
0.119206
0.0792916
0.0439718
0.0253657
0.0240134
0.0258764
0.0274411
0.0484072
0.0878411
0.130315
0.163736
0.187191
0.202677
0.21251
0.218598
0.222314
0.224562
0.225898
0.226647
0.226984
0.226985
0.226649
0.225898
0.224556
0.2223
0.218577
0.212485
0.202652
0.187177
0.163762
0.130434
0.0880716
0.0484653
0.0274612
0.0258608
0.0274411
0.0292611
0.0522895
0.0950065
0.138753
0.171826
0.194214
0.20853
0.217313
0.222529
0.225547
0.227257
0.228203
0.228699
0.228912
0.228913
0.2287
0.228203
0.227254
0.225542
0.222524
0.217311
0.208535
0.194237
0.171888
0.138892
0.0952311
0.0523637
0.0292864
0.027428
0.0287097
0.0307753
0.0555215
0.1007
0.14514
0.177773
0.199218
0.212514
0.220394
0.224878
0.227331
0.228624
0.229279
0.229592
0.229717
0.229717
0.229594
0.229282
0.228629
0.227338
0.22489
0.220415
0.212547
0.199272
0.177861
0.145284
0.100893
0.0556006
0.0308038
0.0286987
0.0296705
0.0319477
0.0580269
0.104992
0.149796
0.181981
0.202654
0.215145
0.222325
0.226252
0.228287
0.22928
0.229732
0.229919
0.229985
0.229986
0.229924
0.22974
0.229292
0.228306
0.226279
0.222364
0.2152
0.202727
0.18208
0.149928
0.105141
0.0581029
0.0319776
0.029661
0.0303155
0.032748
0.0597435
0.107919
0.152874
0.184692
0.204811
0.216748
0.223453
0.227008
0.22877
0.229572
0.229896
0.230007
0.230037
0.230039
0.230014
0.229908
0.22959
0.228798
0.227047
0.223505
0.216815
0.204895
0.184794
0.152994
0.108042
0.0598152
0.0327781
0.030307
0.0306394
0.0331544
0.0606165
0.109393
0.154409
0.186024
0.205854
0.217507
0.223973
0.227343
0.228971
0.229679
0.229942
0.230017
0.23003
0.230033
0.230025
0.229956
0.229701
0.229002
0.227387
0.22403
0.217579
0.205941
0.186125
0.154521
0.109502
0.0606839
0.0331835
0.0306313
0.0306397
0.0331543
0.0606176
0.109394
0.154411
0.186026
0.205856
0.217507
0.223972
0.227342
0.228969
0.229678
0.229941
0.230016
0.230029
0.230031
0.230023
0.229954
0.229698
0.229
0.227385
0.224029
0.217578
0.205941
0.186125
0.154521
0.109501
0.0606832
0.0331827
0.0306315
0.0303162
0.0327475
0.0597466
0.107921
0.15288
0.184698
0.204815
0.216748
0.223451
0.227005
0.228766
0.229568
0.229892
0.230003
0.230033
0.230034
0.230008
0.229902
0.229584
0.228791
0.227041
0.2235
0.216812
0.204894
0.184793
0.152993
0.108037
0.0598131
0.0327757
0.0303076
0.0296716
0.0319465
0.0580312
0.104996
0.149805
0.181989
0.202658
0.215145
0.222322
0.226246
0.228281
0.229274
0.229726
0.229914
0.229979
0.22998
0.229916
0.229731
0.229283
0.228296
0.226271
0.222358
0.215196
0.202726
0.182079
0.149925
0.105133
0.0580995
0.0319739
0.0296621
0.028711
0.0307734
0.0555255
0.100705
0.145149
0.17778
0.199221
0.212512
0.220389
0.224871
0.227324
0.228618
0.229274
0.229587
0.229712
0.229712
0.229587
0.229274
0.228619
0.227328
0.224881
0.220408
0.212544
0.199271
0.177859
0.145277
0.100878
0.0555953
0.0307988
0.0287002
0.0274425
0.0292581
0.0522912
0.095011
0.138758
0.171828
0.194213
0.208525
0.217307
0.222522
0.225541
0.227252
0.2282
0.228698
0.228911
0.228911
0.228696
0.228197
0.227246
0.225534
0.222517
0.217307
0.208533
0.194236
0.171883
0.138878
0.0952055
0.0523555
0.0292801
0.0274302
0.0258777
0.0274368
0.048404
0.0878422
0.13031
0.163727
0.187182
0.202668
0.212502
0.218592
0.222312
0.224563
0.225902
0.226653
0.22699
0.22699
0.226652
0.225898
0.224554
0.222298
0.218575
0.212484
0.202652
0.187174
0.16375
0.130407
0.0880339
0.0484529
0.0274538
0.0258638
0.0240321
0.0253475
0.0439283
0.0790823
0.119058
0.152969
0.177498
0.194151
0.205059
0.212092
0.216617
0.219526
0.221362
0.222443
0.222946
0.222947
0.222446
0.221363
0.21952
0.216601
0.212067
0.205026
0.194109
0.177449
0.152946
0.119148
0.0792414
0.043957
0.0253585
0.024017
0.0219289
0.0230264
0.038979
0.0689175
0.10568
0.139196
0.16427
0.181752
0.193543
0.201475
0.20687
0.210546
0.212985
0.214475
0.215184
0.215189
0.214486
0.212995
0.210547
0.206857
0.201445
0.193495
0.181678
0.164156
0.139056
0.105621
0.0689811
0.038981
0.0230306
0.0219168
0.0196335
0.0205461
0.0338033
0.0579818
0.0900632
0.121361
0.146048
0.163621
0.175843
0.184519
0.190806
0.195334
0.198459
0.200416
0.201361
0.201371
0.200439
0.198486
0.195354
0.190806
0.184487
0.175774
0.1635
0.145843
0.121046
0.0898129
0.0579125
0.0337772
0.0205531
0.0196229
0.0171227
0.0182377
0.0283336
0.0465155
0.0722188
0.0986003
0.120971
0.137418
0.149353
0.158545
0.165667
0.171031
0.174815
0.177218
0.178392
0.17841
0.177266
0.174877
0.171093
0.165715
0.158539
0.149274
0.137244
0.120625
0.0981696
0.0718382
0.0463431
0.0282526
0.0182898
0.0171121
0.0144192
0.0160534
0.0225802
0.0353774
0.0534939
0.0724971
0.0887716
0.101855
0.112573
0.121842
0.129323
0.135131
0.13923
0.141862
0.143165
0.1432
0.141957
0.139361
0.135278
0.129502
0.12197
0.112607
0.101713
0.088455
0.0721006
0.0531998
0.0351951
0.0225099
0.0161187
0.0144152
0.0115838
0.0136004
0.017829
0.0254056
0.0353691
0.0459923
0.0556018
0.0641219
0.0717454
0.0786777
0.0845717
0.0892874
0.0927624
0.0950514
0.0962127
0.0962721
0.095221
0.0930128
0.0895703
0.0848681
0.078944
0.0719262
0.0641549
0.0555192
0.0458376
0.0351939
0.0253111
0.0178099
0.0136751
0.0115889
0.00871595
0.0104103
0.0132233
0.0166276
0.0217626
0.0271749
0.0322298
0.0366754
0.0407585
0.0444439
0.0476225
0.0502008
0.0520952
0.0533514
0.0539924
0.0540191
0.0534275
0.0522034
0.0502702
0.0476742
0.0444828
0.0407833
0.036679
0.0321997
0.0271375
0.0217356
0.0166034
0.0132218
0.010493
0.00872742
0.00514954
0.00164625
0.0075266
0.011139
0.0147368
0.0177445
0.0202932
0.0226498
0.024739
0.0265438
0.0280633
0.0292782
0.0301819
0.0307839
0.0310872
0.0310913
0.0307953
0.0301978
0.0292921
0.0280701
0.0265471
0.0247428
0.0226608
0.0203323
0.0177921
0.0147842
0.0111799
0.00755293
0.00166479
0.00516196
0.0035796
0.00611718
0.00871507
0.0110721
0.0134268
0.0156541
0.0177104
0.0194847
0.0210283
0.0223517
0.0234595
0.0243592
0.0250448
0.0255035
0.0257324
0.0257306
0.0254982
0.025036
0.0243476
0.0234495
0.0223402
0.0210148
0.0194654
0.0176925
0.0156408
0.0134203
0.0110737
0.00872335
0.00612855
0.00358716
0.00335067
0.00570133
0.00822789
0.0105644
0.0129148
0.0151367
0.0171743
0.0189165
0.0204371
0.0217586
0.0228689
0.0237581
0.0244244
0.0248705
0.0250955
0.0250983
0.024879
0.0244382
0.0237767
0.0228888
0.0217814
0.0204632
0.0189495
0.017205
0.0151603
0.0129283
0.0105667
0.00822067
0.00568728
0.00334019
0.00485578
0.00246037
0.0106347
0.0158728
0.0209422
0.0254817
0.0293859
0.0324266
0.034729
0.0364461
0.0377272
0.0386796
0.0393663
0.0398154
0.0400401
0.0400455
0.0398317
0.0393936
0.0387186
0.0377774
0.036503
0.0347872
0.0324771
0.0293988
0.025459
0.0208923
0.0158132
0.0105873
0.00240344
0.00483861
0.00826542
0.0128357
0.0172616
0.0210823
0.0240742
0.0271679
0.0302426
0.033273
0.0361184
0.0385582
0.0405994
0.0422481
0.0435202
0.0443796
0.0448146
0.044822
0.0444041
0.0435698
0.0423588
0.0407591
0.0387574
0.0363332
0.0334654
0.030324
0.0272022
0.0240989
0.0211038
0.0172451
0.0126738
0.00824965
0.0110504
0.0180235
0.0232192
0.0249068
0.0287476
0.0346679
0.0415078
0.0478647
0.0532547
0.0575841
0.0612556
0.0642952
0.0666634
0.0682716
0.0690648
0.0690212
0.0681461
0.0664743
0.0640759
0.0610221
0.0573834
0.0531438
0.0479061
0.0414903
0.0345342
0.0288042
0.0249542
0.0231836
0.0179036
0.0110437
0.013801
0.0220248
0.0263745
0.0295633
0.0381841
0.0508543
0.0627638
0.0723107
0.0800299
0.0863838
0.0915881
0.0958207
0.0993666
0.101843
0.103077
0.103019
0.101683
0.0991545
0.095624
0.0912912
0.0861718
0.0800014
0.072456
0.0628772
0.0507358
0.0379201
0.0295996
0.0263706
0.0219394
0.0138074
0.016437
0.0255383
0.0286722
0.0360036
0.0512301
0.0696943
0.0875324
0.102069
0.11364
0.122543
0.129389
0.134636
0.138589
0.141245
0.142554
0.142496
0.141088
0.138376
0.134416
0.129191
0.122475
0.113758
0.102359
0.0879984
0.0697111
0.05121
0.0360275
0.0287089
0.0255006
0.016454
0.0189118
0.0282919
0.031216
0.0437643
0.0637537
0.0877412
0.111075
0.129581
0.143131
0.153012
0.160232
0.165488
0.169214
0.171614
0.172782
0.172756
0.171548
0.169135
0.165431
0.160224
0.15309
0.143294
0.129827
0.111448
0.0881619
0.0639626
0.0438259
0.0313739
0.0283181
0.0189295
0.0211924
0.0303994
0.0344926
0.0509456
0.0750159
0.104
0.130508
0.150551
0.164915
0.175057
0.182174
0.187124
0.19047
0.192547
0.193539
0.193531
0.192529
0.190458
0.187138
0.182228
0.175158
0.165057
0.150742
0.130741
0.104212
0.0750688
0.0508956
0.0346656
0.0304289
0.0212108
0.0232245
0.0320664
0.0378466
0.0571834
0.0848632
0.117972
0.1456
0.165969
0.180335
0.190249
0.196995
0.201512
0.204444
0.206202
0.207026
0.207025
0.206205
0.204459
0.201548
0.197058
0.190338
0.180445
0.166095
0.145719
0.117989
0.0847253
0.0570516
0.0379929
0.0320897
0.0232447
0.0250112
0.0334239
0.0411104
0.0631498
0.0947856
0.129679
0.157255
0.177234
0.191112
0.200506
0.206732
0.210767
0.213293
0.214758
0.215428
0.21543
0.214766
0.213312
0.210802
0.206783
0.20057
0.191184
0.177303
0.157296
0.129638
0.0945995
0.0629848
0.0412057
0.0334401
0.0250297
0.0265345
0.0345341
0.0440713
0.0684737
0.103416
0.138846
0.166056
0.185373
0.198566
0.207324
0.212987
0.216548
0.218701
0.219909
0.220448
0.22045
0.219916
0.218715
0.216571
0.213018
0.207358
0.198597
0.18539
0.166037
0.138752
0.103211
0.0683123
0.0441062
0.0345444
0.026551
0.0277767
0.0354284
0.0465231
0.0728936
0.110344
0.145844
0.172523
0.191136
0.203633
0.21177
0.21691
0.220048
0.221884
0.222879
0.223312
0.223313
0.222882
0.221889
0.220056
0.216917
0.211774
0.203626
0.191107
0.172458
0.145719
0.110154
0.0727645
0.0465302
0.035435
0.0277913
0.0287223
0.0361149
0.0484425
0.0762667
0.115506
0.150913
0.177071
0.195062
0.206962
0.214577
0.219284
0.222085
0.223673
0.224507
0.22486
0.224859
0.224505
0.22367
0.222079
0.219272
0.214555
0.206925
0.195001
0.176978
0.150781
0.11535
0.0761865
0.048445
0.036119
0.0287355
0.0293594
0.0365841
0.0497683
0.0784958
0.118908
0.15421
0.179973
0.197508
0.208977
0.216217
0.220621
0.223187
0.224607
0.225332
0.225631
0.22563
0.225327
0.224597
0.223171
0.220596
0.216179
0.208921
0.197429
0.179869
0.154082
0.118779
0.0784426
0.0497692
0.0365852
0.0293715
0.0296799
0.0368296
0.0504465
0.0796179
0.120597
0.155834
0.181388
0.198683
0.209927
0.216974
0.22122
0.223667
0.225001
0.225672
0.225945
0.225943
0.225665
0.224989
0.223647
0.221189
0.216929
0.209863
0.198598
0.181281
0.155712
0.120483
0.0795773
0.0504462
0.0368219
0.0296914
0.0296797
0.0368295
0.0504465
0.0796194
0.120597
0.155834
0.181389
0.198684
0.209928
0.216975
0.221221
0.223667
0.225001
0.225671
0.225944
0.225942
0.225666
0.22499
0.223649
0.221192
0.216932
0.209867
0.198602
0.181284
0.155714
0.120484
0.0795779
0.0504463
0.0368228
0.0296913
0.0293589
0.0365851
0.0497684
0.0784997
0.118909
0.154209
0.179975
0.197511
0.208981
0.216221
0.220623
0.223188
0.224606
0.225331
0.22563
0.225629
0.225328
0.224601
0.223177
0.220604
0.21619
0.208932
0.19744
0.179878
0.154089
0.118783
0.0784449
0.0497696
0.0365879
0.0293712
0.0287216
0.0361168
0.0484429
0.0762716
0.115507
0.150914
0.177076
0.19507
0.206971
0.214585
0.21929
0.222087
0.223673
0.224504
0.224856
0.224857
0.224506
0.223675
0.222088
0.219286
0.214572
0.206944
0.195021
0.176996
0.150795
0.11536
0.0761926
0.0484456
0.0361226
0.0287348
0.0277759
0.0354313
0.0465246
0.0728985
0.110345
0.14585
0.172536
0.191152
0.20365
0.211784
0.216919
0.220052
0.221883
0.222875
0.223307
0.22331
0.222883
0.221896
0.220069
0.216936
0.211798
0.203653
0.191136
0.172486
0.145744
0.110175
0.0727783
0.0465314
0.0354392
0.0277902
0.0265338
0.0345381
0.0440794
0.0684787
0.103422
0.138864
0.166083
0.185402
0.198592
0.207344
0.213001
0.216554
0.2187
0.219903
0.220441
0.220445
0.219916
0.218723
0.216587
0.213042
0.207388
0.198632
0.185429
0.166077
0.13879
0.103247
0.0683377
0.0441096
0.0345485
0.0265493
0.0250107
0.033429
0.0411308
0.0631577
0.0948038
0.129718
0.157304
0.17728
0.191151
0.200534
0.20675
0.210774
0.213291
0.214749
0.215418
0.215423
0.214765
0.21332
0.21082
0.206811
0.200607
0.191228
0.177355
0.157354
0.129697
0.0946551
0.0630252
0.0412197
0.0334444
0.0250274
0.0232245
0.0320732
0.0378798
0.0571976
0.0849081
0.118045
0.145678
0.166036
0.180387
0.190286
0.197016
0.201519
0.20444
0.20619
0.207012
0.207015
0.206202
0.204467
0.201569
0.19709
0.190382
0.180499
0.166161
0.145799
0.118085
0.0848142
0.0571003
0.0380093
0.0320928
0.0232417
0.0211928
0.0304073
0.0345339
0.050967
0.0750857
0.104118
0.130624
0.150643
0.164981
0.175102
0.182198
0.187129
0.19046
0.192529
0.19352
0.193516
0.192524
0.190468
0.187163
0.182268
0.175211
0.165125
0.150826
0.130844
0.104332
0.0751626
0.0509421
0.0346841
0.03043
0.0212078
0.0189125
0.0282989
0.0312554
0.0437853
0.0638405
0.087921
0.111245
0.129698
0.143212
0.153061
0.160251
0.165484
0.169192
0.171586
0.172754
0.172737
0.171542
0.169146
0.165462
0.160276
0.153159
0.143378
0.129931
0.111589
0.0883187
0.0640486
0.0438438
0.031393
0.0283189
0.0189257
0.0164361
0.0255258
0.0286847
0.0360164
0.0512564
0.0697992
0.0877266
0.102202
0.113725
0.12258
0.129388
0.13461
0.138547
0.1412
0.142515
0.142471
0.14108
0.138389
0.134455
0.129261
0.122565
0.113863
0.102477
0.0881468
0.0698092
0.051258
0.0360409
0.0287172
0.0254862
0.0164474
0.0137984
0.0220044
0.0263777
0.0295737
0.0381461
0.0508634
0.0628519
0.0723909
0.0800783
0.0863975
0.0915789
0.0958021
0.099332
0.101809
0.103052
0.103006
0.101684
0.099171
0.09566
0.0913687
0.0862646
0.0800961
0.0725418
0.0629399
0.0507728
0.0379418
0.0296013
0.026373
0.0219248
0.0138002
0.011046
0.0179971
0.0232091
0.0249209
0.0287659
0.034654
0.0415153
0.0478843
0.0532594
0.0575754
0.0612394
0.0642772
0.0666463
0.0682606
0.069062
0.0690273
0.0681613
0.0664988
0.0641099
0.0610658
0.0574322
0.0531892
0.0479277
0.0415098
0.0345546
0.0288118
0.0249559
0.0231713
0.0178898
0.0110369
0.00825994
0.0128018
0.0172574
0.0210935
0.0240887
0.027185
0.0302656
0.0333175
0.0361629
0.0385935
0.040622
0.0422578
0.0435179
0.044372
0.0448049
0.0448127
0.0443971
0.0435662
0.0423599
0.0407643
0.0387671
0.0363479
0.0334828
0.0303369
0.0272137
0.0241077
0.0211087
0.0172379
0.0126641
0.00824428
0.00485126
0.00245025
0.0106264
0.0158613
0.0209306
0.0254747
0.0293877
0.0324424
0.0347468
0.0364641
0.037745
0.0386974
0.0393841
0.0398331
0.0400573
0.0400621
0.0398472
0.0394075
0.0387304
0.0377867
0.0365105
0.0347933
0.0324808
0.0293889
0.0254459
0.0208809
0.0158059
0.0105841
0.00240027
0.00483555
0.00334806
0.00569749
0.0082249
0.0105628
0.0129152
0.015139
0.0171783
0.0189215
0.0204419
0.0217634
0.0228735
0.0237621
0.0244278
0.0248735
0.0250979
0.0251001
0.0248801
0.0244387
0.0237766
0.0228888
0.0217807
0.0204608
0.0189454
0.0171996
0.0151543
0.0129223
0.0105613
0.0082164
0.00568436
0.0033386
0.00335529
0.00568478
0.00815374
0.0104552
0.0127424
0.0148994
0.0168846
0.0185918
0.0200824
0.0213729
0.0224566
0.0233279
0.023983
0.0244197
0.0246365
0.0246326
0.0244083
0.0239644
0.0233028
0.0224262
0.0213392
0.0200478
0.0185597
0.0168579
0.0148806
0.0127341
0.0104581
0.00816173
0.005703
0.00336918
0.00488751
0.00319334
0.0120215
0.018479
0.0245908
0.030022
0.0347383
0.0386528
0.0418307
0.0443918
0.0464147
0.0479694
0.0490989
0.0498314
0.0501859
0.0501723
0.0497923
0.0490385
0.0478967
0.0463435
0.0443342
0.041795
0.038659
0.0347788
0.0300779
0.0246407
0.018493
0.0120064
0.00329713
0.00490912
0.0082195
0.0143944
0.0195157
0.0250486
0.0299925
0.0346888
0.0389619
0.0425666
0.0453106
0.0473792
0.0489204
0.050059
0.0508714
0.0513967
0.0516553
0.0516564
0.051401
0.0508836
0.0500918
0.0489931
0.0474927
0.0454389
0.0426825
0.0390625
0.0346881
0.0298698
0.0248636
0.0194136
0.0144529
0.00822944
0.0109737
0.0207493
0.0275303
0.0306852
0.0336769
0.0369995
0.0400951
0.0432664
0.0464751
0.0496356
0.0526481
0.0554202
0.0576761
0.0592503
0.0600406
0.0599953
0.0591127
0.0574448
0.0551223
0.0525017
0.0496668
0.0465508
0.0433112
0.040139
0.0370214
0.0335078
0.030472
0.0274879
0.0208556
0.0109837
0.0136346
0.0259634
0.0328112
0.03533
0.0379482
0.044038
0.0512935
0.0584184
0.0648441
0.0705669
0.0758821
0.0803742
0.0837335
0.085952
0.0870768
0.0871043
0.0860141
0.0837449
0.0801456
0.0753476
0.069987
0.0644678
0.0583781
0.0513903
0.0442803
0.0384598
0.0353089
0.0328888
0.0260757
0.0136329
0.0161873
0.030629
0.0367432
0.0386066
0.0438471
0.0554448
0.0676207
0.0788673
0.0884661
0.0965513
0.10347
0.109157
0.113417
0.116245
0.117695
0.117794
0.116511
0.113753
0.109407
0.103521
0.0963941
0.0882341
0.0786096
0.06732
0.0557152
0.0443977
0.0387249
0.0369069
0.0307501
0.0161736
0.0185772
0.0345941
0.0395978
0.0413138
0.0516924
0.0679253
0.084491
0.100475
0.114622
0.125877
0.134611
0.141093
0.145711
0.14871
0.150208
0.15025
0.148817
0.145824
0.141139
0.134566
0.125671
0.114308
0.100183
0.0840874
0.0677727
0.0518407
0.0414243
0.039725
0.0346784
0.0185544
0.0207795
0.0379654
0.0414651
0.0446616
0.0605989
0.0805903
0.10161
0.122081
0.138583
0.150682
0.159575
0.166013
0.170497
0.173348
0.174746
0.174763
0.173387
0.170527
0.165999
0.159498
0.150529
0.138359
0.121683
0.101209
0.0803857
0.0604279
0.044743
0.0415663
0.0379917
0.0207517
0.0227685
0.0408805
0.0429936
0.0488374
0.0696656
0.0925092
0.117795
0.139968
0.156794
0.16901
0.177752
0.18392
0.188122
0.190745
0.19201
0.192015
0.190754
0.188122
0.183893
0.177691
0.168913
0.156655
0.139762
0.11755
0.0924034
0.0695
0.0488118
0.0430552
0.0408705
0.02274
0.0245182
0.0433152
0.0443957
0.0536471
0.0771757
0.103284
0.131268
0.153561
0.170167
0.182077
0.190466
0.19627
0.200145
0.20252
0.20365
0.203652
0.202521
0.200138
0.19625
0.19043
0.182025
0.170098
0.153475
0.131203
0.103309
0.0772133
0.0534003
0.0444114
0.0432812
0.0244907
0.0260076
0.0452841
0.0456485
0.0583423
0.083727
0.112966
0.141609
0.163715
0.179838
0.191258
0.199193
0.204592
0.208131
0.210265
0.211268
0.211268
0.210265
0.208128
0.204584
0.19918
0.191243
0.179825
0.163714
0.141656
0.1131
0.0838149
0.0581527
0.045659
0.045239
0.025982
0.02722
0.0468181
0.0467605
0.0624163
0.0890698
0.120656
0.1494
0.171114
0.186693
0.197589
0.20506
0.210064
0.213289
0.215203
0.216092
0.216093
0.215205
0.213292
0.210069
0.205069
0.197606
0.186726
0.171177
0.149518
0.120844
0.0892029
0.062366
0.0467627
0.046767
0.0271961
0.0281416
0.0479451
0.0476507
0.0653049
0.0929628
0.126213
0.154927
0.176251
0.191351
0.201791
0.208859
0.213525
0.216486
0.218218
0.219014
0.219016
0.218223
0.216496
0.213541
0.208885
0.201833
0.191417
0.176353
0.15508
0.126414
0.0931063
0.0653207
0.0476502
0.0478929
0.0281192
0.0287623
0.0486893
0.0483339
0.0672437