/*--------------------------------*- C++ -*----------------------------------*\
| =========                 |                                                 |
| \\      /  F ield         | OpenFOAM: The Open Source CFD Toolbox           |
|  \\    /   O peration     | Version:  2312                                  |
|   \\  /    A nd           | Website:  www.openfoam.com                      |
|    \\/     M anipulation  |                                                 |
\*---------------------------------------------------------------------------*/
FoamFile
{
    version     2.0;
    format      ascii;
    arch        "LSB;label=32;scalar=64";
    class       volScalarField;
    location    "650";
    object      epsilon;
}
// * * * * * * * * * * * * * * * * * * * * * * * * * * * * * * * * * * * * * //

dimensions      [0 2 -3 0 0 0 0];

internalField   nonuniform List<scalar> 
27000
(
0.00152225
0.000224103
0.000110748
7.01464e-05
5.21371e-05
4.18681e-05
3.51611e-05
3.05125e-05
2.71683e-05
2.47198e-05
2.29179e-05
2.15957e-05
2.06628e-05
2.00715e-05
1.97868e-05
1.97914e-05
2.00855e-05
2.06865e-05
2.16286e-05
2.29529e-05
2.47629e-05
2.72211e-05
3.05754e-05
3.52338e-05
4.19477e-05
5.2213e-05
7.01903e-05
0.000110685
0.000223728
0.00151921
0.000150547
3.24248e-05
1.38765e-05
9.30189e-06
7.18837e-06
5.96365e-06
5.13066e-06
4.52262e-06
4.06767e-06
3.72766e-06
3.47541e-06
3.29003e-06
3.1587e-06
3.07485e-06
3.03426e-06
3.03477e-06
3.07633e-06
3.16093e-06
3.29244e-06
3.47715e-06
3.729e-06
4.06839e-06
4.52252e-06
5.12967e-06
5.962e-06
7.18496e-06
9.29192e-06
1.38433e-05
3.23303e-05
0.000150269
0.000100051
1.52715e-05
5.11832e-06
2.56412e-06
1.91527e-06
1.62622e-06
1.44458e-06
1.31465e-06
1.2171e-06
1.14322e-06
1.08773e-06
1.04669e-06
1.01743e-06
9.98541e-07
9.8923e-07
9.89085e-07
9.98075e-07
1.01653e-06
1.04514e-06
1.08542e-06
1.14021e-06
1.21354e-06
1.311e-06
1.44172e-06
1.62536e-06
1.91699e-06
2.56613e-06
5.10384e-06
1.52083e-05
9.99672e-05
6.66741e-05
1.02659e-05
2.836e-06
1.39309e-06
9.97926e-07
8.54939e-07
7.80433e-07
7.31233e-07
6.95523e-07
6.68924e-07
6.48856e-07
6.3401e-07
6.23441e-07
6.16591e-07
6.1315e-07
6.12969e-07
6.16039e-07
6.22493e-07
6.32647e-07
6.47134e-07
6.67007e-07
6.93732e-07
7.30027e-07
7.80452e-07
8.56784e-07
1.00158e-06
1.39654e-06
2.83127e-06
1.02389e-05
6.66864e-05
4.92835e-05
7.25616e-06
2.04495e-06
1.04127e-06
7.51285e-07
6.4256e-07
5.9251e-07
5.63586e-07
5.44457e-07
5.3198e-07
5.22535e-07
5.15578e-07
5.10644e-07
5.07444e-07
5.05809e-07
5.05657e-07
5.06994e-07
5.09916e-07
5.14629e-07
5.2149e-07
5.31042e-07
5.43984e-07
5.63714e-07
5.93538e-07
6.44587e-07
7.53916e-07
1.04291e-06
2.04176e-06
7.24549e-06
4.93321e-05
3.87051e-05
5.61377e-06
1.62804e-06
8.76555e-07
6.50721e-07
5.62001e-07
5.22727e-07
5.0213e-07
4.8984e-07
4.82048e-07
4.76731e-07
4.72988e-07
4.70398e-07
4.68733e-07
4.67872e-07
4.67763e-07
4.68417e-07
4.69913e-07
4.72409e-07
4.76178e-07
4.81686e-07
4.89851e-07
5.02626e-07
5.23728e-07
5.63242e-07
6.51976e-07
8.76635e-07
1.62504e-06
5.60963e-06
3.87596e-05
3.17036e-05
4.59746e-06
1.38545e-06
7.79997e-07
5.96579e-07
5.24341e-07
4.91847e-07
4.75836e-07
4.67132e-07
4.61994e-07
4.58739e-07
4.56578e-07
4.55134e-07
4.54222e-07
4.53747e-07
4.53676e-07
4.54022e-07
4.54844e-07
4.56264e-07
4.58495e-07
4.61927e-07
4.67334e-07
4.76334e-07
4.92561e-07
5.25041e-07
5.96891e-07
7.79159e-07
1.38253e-06
4.59632e-06
3.17538e-05
2.68265e-05
3.91327e-06
1.22709e-06
7.17425e-07
5.62003e-07
5.025e-07
4.76013e-07
4.63451e-07
4.57106e-07
4.5365e-07
4.51612e-07
4.5033e-07
4.495e-07
4.48982e-07
4.48713e-07
4.48671e-07
4.48867e-07
4.49342e-07
4.5018e-07
4.51532e-07
4.53698e-07
4.57315e-07
4.63798e-07
4.76393e-07
5.02724e-07
5.61841e-07
7.16311e-07
1.22481e-06
3.9141e-06
2.68709e-05
2.3252e-05
3.42149e-06
1.11375e-06
6.73638e-07
5.38655e-07
4.88609e-07
4.66917e-07
4.5707e-07
4.52428e-07
4.50107e-07
4.48841e-07
4.48081e-07
4.47599e-07
4.47298e-07
4.47141e-07
4.47118e-07
4.47237e-07
4.4752e-07
4.48018e-07
4.48827e-07
4.50169e-07
4.52564e-07
4.57238e-07
4.67027e-07
4.88546e-07
5.38345e-07
6.72649e-07
1.11238e-06
3.42434e-06
2.32958e-05
2.06418e-05
3.06135e-06
1.02948e-06
6.41805e-07
5.2429e-07
4.79855e-07
4.61447e-07
4.53552e-07
4.5011e-07
4.4855e-07
4.47775e-07
4.47335e-07
4.47058e-07
4.46881e-07
4.46788e-07
4.46776e-07
4.46849e-07
4.47019e-07
4.47308e-07
4.47775e-07
4.48582e-07
4.50159e-07
4.53575e-07
4.61377e-07
4.79614e-07
5.23805e-07
6.41055e-07
1.0289e-06
3.06501e-06
2.06771e-05
1.8735e-05
2.79756e-06
9.6652e-07
6.17714e-07
5.12945e-07
4.7378e-07
4.57966e-07
4.51501e-07
4.48887e-07
4.47823e-07
4.47355e-07
4.47109e-07
4.46953e-07
4.46851e-07
4.46795e-07
4.46788e-07
4.46833e-07
4.46932e-07
4.47091e-07
4.47345e-07
4.47817e-07
4.48866e-07
4.51433e-07
4.57807e-07
4.73492e-07
5.12522e-07
6.17253e-07
9.66489e-07
2.80136e-06
1.87631e-05
1.7361e-05
2.60696e-06
9.20334e-07
5.99899e-07
5.04507e-07
4.69452e-07
4.55663e-07
4.50252e-07
4.48205e-07
4.47458e-07
4.47175e-07
4.47044e-07
4.46961e-07
4.46903e-07
4.4687e-07
4.46865e-07
4.46891e-07
4.46944e-07
4.47024e-07
4.47151e-07
4.47422e-07
4.48143e-07
4.50142e-07
4.55484e-07
4.69196e-07
5.04205e-07
5.99681e-07
9.20655e-07
2.61067e-06
1.73837e-05
1.6409e-05
2.4746e-06
8.87873e-07
5.87237e-07
4.98558e-07
4.66478e-07
4.54157e-07
4.49488e-07
4.47817e-07
4.47265e-07
4.4709e-07
4.47024e-07
4.46984e-07
4.46952e-07
4.46933e-07
4.46929e-07
4.46942e-07
4.46966e-07
4.46999e-07
4.47055e-07
4.47212e-07
4.47736e-07
4.49368e-07
4.53991e-07
4.66277e-07
4.98369e-07
5.87209e-07
8.88398e-07
2.47814e-06
1.64282e-05
1.58088e-05
2.39097e-06
8.67166e-07
5.78967e-07
4.94741e-07
4.64614e-07
4.53246e-07
4.49048e-07
4.47606e-07
4.47165e-07
4.47049e-07
4.47018e-07
4.47e-07
4.46984e-07
4.46972e-07
4.46969e-07
4.46974e-07
4.46982e-07
4.4699e-07
4.47008e-07
4.47105e-07
4.4752e-07
4.48932e-07
4.53102e-07
4.64459e-07
4.94626e-07
5.79021e-07
8.67786e-07
2.39435e-06
1.58257e-05
1.55181e-05
2.35044e-06
8.57084e-07
5.74916e-07
4.9288e-07
4.63717e-07
4.52818e-07
4.48849e-07
4.47515e-07
4.47125e-07
4.47034e-07
4.47017e-07
4.47009e-07
4.47e-07
4.46992e-07
4.46989e-07
4.4699e-07
4.46991e-07
4.46988e-07
4.46991e-07
4.47064e-07
4.47431e-07
4.4874e-07
4.52689e-07
4.63589e-07
4.92799e-07
5.75002e-07
8.5773e-07
2.35369e-06
1.55339e-05
1.55174e-05
2.35035e-06
8.5707e-07
5.74913e-07
4.92882e-07
4.63721e-07
4.52823e-07
4.48854e-07
4.4752e-07
4.4713e-07
4.47038e-07
4.47021e-07
4.47012e-07
4.47003e-07
4.46995e-07
4.46992e-07
4.46993e-07
4.46996e-07
4.46994e-07
4.46998e-07
4.47072e-07
4.4744e-07
4.48749e-07
4.52699e-07
4.63596e-07
4.92803e-07
5.74995e-07
8.57696e-07
2.35354e-06
1.55332e-05
1.58066e-05
2.39069e-06
8.67119e-07
5.78957e-07
4.94746e-07
4.64625e-07
4.5326e-07
4.49063e-07
4.47621e-07
4.47179e-07
4.47061e-07
4.47028e-07
4.47009e-07
4.46992e-07
4.4698e-07
4.46978e-07
4.46984e-07
4.46995e-07
4.47007e-07
4.47028e-07
4.47129e-07
4.47547e-07
4.48961e-07
4.5313e-07
4.64483e-07
4.94638e-07
5.79003e-07
8.67685e-07
2.3939e-06
1.58233e-05
1.64055e-05
2.4741e-06
8.8778e-07
5.87214e-07
4.98562e-07
4.66495e-07
4.5418e-07
4.49514e-07
4.47843e-07
4.47288e-07
4.4711e-07
4.47041e-07
4.46998e-07
4.46965e-07
4.46946e-07
4.46944e-07
4.4696e-07
4.46989e-07
4.47027e-07
4.47089e-07
4.47252e-07
4.47782e-07
4.49418e-07
4.54041e-07
4.66321e-07
4.98393e-07
5.87183e-07
8.8823e-07
2.47736e-06
1.6424e-05
1.73561e-05
2.60621e-06
9.20172e-07
5.99853e-07
5.04504e-07
4.69472e-07
4.55695e-07
4.5029e-07
4.48242e-07
4.47491e-07
4.47203e-07
4.47066e-07
4.46979e-07
4.46919e-07
4.46886e-07
4.46885e-07
4.46915e-07
4.46974e-07
4.47062e-07
4.47198e-07
4.47478e-07
4.48208e-07
4.50213e-07
4.55557e-07
4.69261e-07
5.04245e-07
5.99651e-07
9.20419e-07
2.60952e-06
1.73774e-05
1.87288e-05
2.79649e-06
9.66248e-07
6.17624e-07
5.12927e-07
4.738e-07
4.58007e-07
4.51551e-07
4.48936e-07
4.47866e-07
4.4739e-07
4.47135e-07
4.46974e-07
4.46869e-07
4.46814e-07
4.46811e-07
4.46863e-07
4.4697e-07
4.47139e-07
4.47405e-07
4.47888e-07
4.48948e-07
4.51523e-07
4.57901e-07
4.73579e-07
5.12579e-07
6.17223e-07
9.66177e-07
2.79976e-06
1.87541e-05
2.06343e-05
3.05985e-06
1.02904e-06
6.41648e-07
5.24251e-07
4.79877e-07
4.615e-07
4.53616e-07
4.50171e-07
4.486e-07
4.47813e-07
4.47362e-07
4.47077e-07
4.46898e-07
4.46806e-07
4.468e-07
4.46882e-07
4.47063e-07
4.47364e-07
4.47844e-07
4.48664e-07
4.50252e-07
4.53678e-07
4.61483e-07
4.79712e-07
5.2387e-07
6.41022e-07
1.0285e-06
3.06286e-06
2.06648e-05
2.32432e-05
3.41938e-06
1.11307e-06
6.73392e-07
5.38601e-07
4.88636e-07
4.66983e-07
4.57146e-07
4.52496e-07
4.50158e-07
4.48873e-07
4.481e-07
4.47611e-07
4.47309e-07
4.47156e-07
4.47141e-07
4.47271e-07
4.47568e-07
4.48079e-07
4.48901e-07
4.50255e-07
4.52661e-07
4.57341e-07
4.67131e-07
4.88633e-07
5.38374e-07
6.72586e-07
1.11188e-06
3.4216e-06
2.32796e-05
2.68163e-05
3.91034e-06
1.22608e-06
7.17071e-07
5.61917e-07
5.0253e-07
4.7609e-07
4.63532e-07
4.57168e-07
4.53686e-07
4.51626e-07
4.50329e-07
4.49494e-07
4.48978e-07
4.48717e-07
4.48688e-07
4.48898e-07
4.49389e-07
4.50241e-07
4.51605e-07
4.53779e-07
4.574e-07
4.63882e-07
4.76469e-07
5.02776e-07
5.61823e-07
7.16167e-07
1.22411e-06
3.91074e-06
2.6853e-05
3.16928e-05
4.59338e-06
1.384e-06
7.7953e-07
5.96475e-07
5.24373e-07
4.9192e-07
4.75897e-07
4.67161e-07
4.61988e-07
4.58709e-07
4.56537e-07
4.55095e-07
4.54191e-07
4.53732e-07
4.53679e-07
4.54042e-07
4.54882e-07
4.56316e-07
4.58555e-07
4.61989e-07
4.67389e-07
4.76372e-07
4.92569e-07
5.25003e-07
5.96767e-07
7.78819e-07
1.38139e-06
4.59152e-06
3.17305e-05
3.86907e-05
5.60773e-06
1.62603e-06
8.75968e-07
6.50597e-07
5.61996e-07
5.22752e-07
5.0212e-07
4.89784e-07
4.81953e-07
4.76618e-07
4.72878e-07
4.70301e-07
4.68657e-07
4.6782e-07
4.67734e-07
4.68411e-07
4.69926e-07
4.72435e-07
4.76207e-07
4.81706e-07
4.89846e-07
5.02578e-07
5.23614e-07
5.63031e-07
6.51611e-07
8.75917e-07
1.62308e-06
5.60257e-06
3.87285e-05
4.92617e-05
7.24684e-06
2.04193e-06
1.04044e-06
7.51083e-07
6.4248e-07
5.92389e-07
5.63399e-07
5.44226e-07
5.31713e-07
5.22279e-07
5.15352e-07
5.10453e-07
5.0729e-07
5.05687e-07
5.05563e-07
5.06925e-07
5.09866e-07
5.14589e-07
5.21445e-07
5.30973e-07
5.43859e-07
5.63514e-07
5.93221e-07
6.44084e-07
7.53096e-07
1.04144e-06
2.0383e-06
7.23492e-06
4.92897e-05
6.66365e-05
1.02504e-05
2.83079e-06
1.3916e-06
9.97349e-07
8.54448e-07
7.79834e-07
7.30566e-07
6.94868e-07
6.68329e-07
6.48345e-07
6.3358e-07
6.23078e-07
6.16279e-07
6.12875e-07
6.1272e-07
6.15809e-07
6.22275e-07
6.32432e-07
6.46904e-07
6.66726e-07
6.93357e-07
7.29505e-07
7.79718e-07
8.55715e-07
9.99907e-07
1.39351e-06
2.82468e-06
1.02226e-05
6.66271e-05
9.99825e-05
1.5247e-05
5.10758e-06
2.5604e-06
1.91298e-06
1.62417e-06
1.44255e-06
1.3128e-06
1.21553e-06
1.14192e-06
1.08666e-06
1.04578e-06
1.01662e-06
9.97797e-07
9.8851e-07
9.88363e-07
9.97332e-07
1.01576e-06
1.04433e-06
1.08454e-06
1.13919e-06
1.21229e-06
1.3094e-06
1.43966e-06
1.62261e-06
1.91309e-06
2.5598e-06
5.09058e-06
1.5187e-05
9.98863e-05
0.000150427
3.23914e-05
1.38586e-05
9.2908e-06
7.1803e-06
5.95722e-06
5.12533e-06
4.51826e-06
4.0641e-06
3.72467e-06
3.47281e-06
3.28754e-06
3.15623e-06
3.07232e-06
3.0316e-06
3.03191e-06
3.07321e-06
3.1575e-06
3.28874e-06
3.47324e-06
3.7245e-06
4.06308e-06
4.51613e-06
5.12186e-06
5.95232e-06
7.17278e-06
9.27599e-06
1.38215e-05
3.2298e-05
0.000150136
0.00152109
0.000223933
0.000110683
7.01188e-05
5.21232e-05
4.18598e-05
3.5155e-05
3.05071e-05
2.71628e-05
2.47139e-05
2.29114e-05
2.15875e-05
2.06535e-05
2.00613e-05
1.97756e-05
1.97791e-05
2.00719e-05
2.06715e-05
2.16122e-05
2.29374e-05
2.47456e-05
2.72011e-05
3.05518e-05
3.52054e-05
4.19128e-05
5.2169e-05
7.01315e-05
0.000110593
0.000223547
0.00151814
0.00113404
0.000170423
8.93407e-05
5.87543e-05
4.53726e-05
3.75962e-05
3.24623e-05
2.88786e-05
2.62463e-05
2.42671e-05
2.27959e-05
2.17463e-05
2.10305e-05
2.0575e-05
2.03506e-05
2.03452e-05
2.05583e-05
2.10019e-05
2.17062e-05
2.2758e-05
2.42179e-05
2.61778e-05
2.87619e-05
3.2324e-05
3.74531e-05
4.52542e-05
5.87298e-05
8.95657e-05
0.000171429
0.00114172
0.000108184
3.13591e-05
2.05354e-05
1.44397e-05
1.15635e-05
9.69765e-06
8.3168e-06
7.29655e-06
6.51962e-06
5.92519e-06
5.47851e-06
5.15568e-06
4.9349e-06
4.7968e-06
4.72979e-06
4.72886e-06
4.79421e-06
4.93147e-06
5.15313e-06
5.47862e-06
5.92765e-06
6.52472e-06
7.30602e-06
8.33907e-06
9.73101e-06
1.16104e-05
1.45137e-05
2.06607e-05
3.17677e-05
0.000109003
8.43872e-05
2.25907e-05
1.14419e-05
5.82083e-06
3.73863e-06
2.90126e-06
2.43883e-06
2.11769e-06
1.87934e-06
1.7002e-06
1.56735e-06
1.47204e-06
1.40789e-06
1.36817e-06
1.34932e-06
1.34977e-06
1.36964e-06
1.41075e-06
1.47808e-06
1.57668e-06
1.71317e-06
1.89601e-06
2.13713e-06
2.45764e-06
2.91173e-06
3.73561e-06
5.81332e-06
1.14985e-05
2.28391e-05
8.47218e-05
5.76529e-05
1.6431e-05
6.58752e-06
2.80647e-06
1.55795e-06
1.15033e-06
9.82833e-07
8.85998e-07
8.16707e-07
7.63994e-07
7.24078e-07
6.9466e-07
6.74269e-07
6.61517e-07
6.55531e-07
6.55916e-07
6.62705e-07
6.7638e-07
6.97904e-07
7.28462e-07
7.69439e-07
8.22681e-07
8.91232e-07
9.84993e-07
1.1459e-06
1.54434e-06
2.78797e-06
6.61925e-06
1.65781e-05
5.76953e-05
4.43925e-05
1.16778e-05
4.15711e-06
1.6921e-06
9.498e-07
6.99042e-07
6.02364e-07
5.5594e-07
5.26799e-07
5.04297e-07
4.87734e-07
4.75505e-07
4.67288e-07
4.62203e-07
4.59902e-07
4.60256e-07
4.63269e-07
4.69058e-07
4.77898e-07
4.904e-07
5.07088e-07
5.29034e-07
5.56904e-07
6.01082e-07
6.94431e-07
9.41838e-07
1.68664e-06
4.18228e-06
1.17535e-05
4.43197e-05
3.62781e-05
8.82066e-06
2.87622e-06
1.21315e-06
7.22109e-07
5.45934e-07
4.70532e-07
4.371e-07
4.20399e-07
4.09861e-07
4.02396e-07
3.96968e-07
3.93239e-07
3.90948e-07
3.8995e-07
3.90188e-07
3.91646e-07
3.94346e-07
3.98358e-07
4.03842e-07
4.1107e-07
4.2091e-07
4.36471e-07
4.6875e-07
5.43096e-07
7.19319e-07
1.21461e-06
2.89814e-06
8.8594e-06
3.61815e-05
3.07591e-05
7.02318e-06
2.16774e-06
9.6385e-07
6.1136e-07
4.7521e-07
4.16482e-07
3.89688e-07
3.76822e-07
3.70001e-07
3.65901e-07
3.63213e-07
3.61448e-07
3.60396e-07
3.59963e-07
3.60108e-07
3.60813e-07
3.62076e-07
3.63939e-07
3.66548e-07
3.70343e-07
3.76606e-07
3.88777e-07
4.15046e-07
4.73998e-07
6.11391e-07
9.67881e-07
2.18488e-06
7.03904e-06
3.06954e-05
2.68421e-05
5.86597e-06
1.75423e-06
8.19573e-07
5.47117e-07
4.38635e-07
3.90829e-07
3.68162e-07
3.57224e-07
3.51851e-07
3.49089e-07
3.47571e-07
3.46706e-07
3.4624e-07
3.46069e-07
3.4615e-07
3.46467e-07
3.47029e-07
3.47904e-07
3.49311e-07
3.51833e-07
3.56872e-07
3.67514e-07
3.90152e-07
4.38491e-07
5.48334e-07
8.23644e-07
1.76614e-06
5.8728e-06
2.67911e-05
2.41267e-05
5.09285e-06
1.50034e-06
7.30451e-07
5.0593e-07
4.16987e-07
3.76857e-07
3.57428e-07
3.4793e-07
3.43363e-07
3.41209e-07
3.40202e-07
3.39737e-07
3.39536e-07
3.3948e-07
3.39522e-07
3.39649e-07
3.39886e-07
3.40332e-07
3.41251e-07
3.43265e-07
3.47691e-07
3.57152e-07
3.76789e-07
4.17501e-07
5.07364e-07
7.33627e-07
1.50769e-06
5.09297e-06
2.4074e-05
2.21142e-05
4.55704e-06
1.33566e-06
6.71949e-07
4.77168e-07
4.02443e-07
3.68253e-07
3.51535e-07
3.43295e-07
3.39343e-07
3.37538e-07
3.36767e-07
3.36469e-07
3.36373e-07
3.36359e-07
3.36379e-07
3.36425e-07
3.36532e-07
3.36811e-07
3.37535e-07
3.39285e-07
3.43221e-07
3.51552e-07
3.68548e-07
4.03259e-07
4.78737e-07
6.74147e-07
1.3396e-06
4.55375e-06
2.20746e-05
2.06134e-05
4.17772e-06
1.22466e-06
6.32269e-07
4.58688e-07
3.92517e-07
3.6255e-07
3.47984e-07
3.40823e-07
3.37393e-07
3.35837e-07
3.35191e-07
3.34957e-07
3.34894e-07
3.3489e-07
3.34899e-07
3.34919e-07
3.34986e-07
3.35212e-07
3.35845e-07
3.374e-07
3.40875e-07
3.48166e-07
3.62983e-07
3.93325e-07
4.59924e-07
6.33616e-07
1.22632e-06
4.17303e-06
2.05841e-05
1.95115e-05
3.90985e-06
1.1487e-06
6.04835e-07
4.45937e-07
3.85623e-07
3.58635e-07
3.45691e-07
3.39395e-07
3.36397e-07
3.35038e-07
3.3447e-07
3.34261e-07
3.34202e-07
3.34194e-07
3.34199e-07
3.34216e-07
3.34281e-07
3.34493e-07
3.35069e-07
3.36455e-07
3.39517e-07
3.45934e-07
3.59064e-07
3.86286e-07
4.46801e-07
6.05589e-07
1.14901e-06
3.9047e-06
1.94892e-05
1.87365e-05
3.72664e-06
1.09784e-06
5.86174e-07
4.37195e-07
3.80883e-07
3.55959e-07
3.44175e-07
3.38522e-07
3.35854e-07
3.34646e-07
3.34133e-07
3.33935e-07
3.33871e-07
3.33857e-07
3.33862e-07
3.33884e-07
3.33956e-07
3.34164e-07
3.34696e-07
3.35941e-07
3.38671e-07
3.44421e-07
3.56332e-07
3.81389e-07
4.37777e-07
5.86588e-07
1.09741e-06
3.72148e-06
1.87186e-05
1.82423e-05
3.61198e-06
1.06638e-06
5.74305e-07
4.31637e-07
3.7787e-07
3.54263e-07
3.43229e-07
3.37998e-07
3.35553e-07
3.34448e-07
3.33972e-07
3.33781e-07
3.33713e-07
3.33694e-07
3.33698e-07
3.33725e-07
3.33804e-07
3.3401e-07
3.34509e-07
3.35652e-07
3.38151e-07
3.43456e-07
3.54577e-07
3.78257e-07
4.32031e-07
5.74488e-07
1.06559e-06
3.60697e-06
1.82271e-05
1.80019e-05
3.5567e-06
1.0513e-06
5.6857e-07
4.28926e-07
3.76394e-07
3.53432e-07
3.42765e-07
3.37745e-07
3.35412e-07
3.34359e-07
3.33903e-07
3.33715e-07
3.33645e-07
3.33624e-07
3.33628e-07
3.33658e-07
3.33739e-07
3.33943e-07
3.34423e-07
3.35512e-07
3.37894e-07
3.42977e-07
3.53708e-07
3.76718e-07
4.29229e-07
5.68654e-07
1.05041e-06
3.5519e-06
1.79878e-05
1.80023e-05
3.5567e-06
1.05127e-06
5.68551e-07
4.2891e-07
3.76382e-07
3.53421e-07
3.42756e-07
3.37736e-07
3.35405e-07
3.34352e-07
3.33897e-07
3.3371e-07
3.33639e-07
3.33618e-07
3.33622e-07
3.33651e-07
3.33732e-07
3.33934e-07
3.34413e-07
3.355e-07
3.3788e-07
3.42961e-07
3.53691e-07
3.767e-07
4.29214e-07
5.6865e-07
1.05043e-06
3.55203e-06
1.79882e-05
1.82437e-05
3.612e-06
1.06629e-06
5.74255e-07
4.31594e-07
3.77834e-07
3.54231e-07
3.43199e-07
3.37971e-07
3.35529e-07
3.34426e-07
3.33953e-07
3.33763e-07
3.33696e-07
3.33677e-07
3.33679e-07
3.33704e-07
3.3378e-07
3.33982e-07
3.34477e-07
3.35615e-07
3.38109e-07
3.43407e-07
3.54522e-07
3.78201e-07
4.31982e-07
5.7447e-07
1.06567e-06
3.60738e-06
1.82283e-05
1.87387e-05
3.72675e-06
1.09773e-06
5.8611e-07
4.37134e-07
3.80826e-07
3.55905e-07
3.44123e-07
3.38473e-07
3.35811e-07
3.34608e-07
3.34099e-07
3.33905e-07
3.33842e-07
3.33828e-07
3.3383e-07
3.33848e-07
3.33915e-07
3.34117e-07
3.34641e-07
3.35876e-07
3.38595e-07
3.44334e-07
3.56234e-07
3.81286e-07
4.37683e-07
5.86546e-07
1.09753e-06
3.72216e-06
1.87209e-05
1.95146e-05
3.91014e-06
1.14866e-06
6.04785e-07
4.45871e-07
3.85549e-07
3.58555e-07
3.4561e-07
3.39319e-07
3.3633e-07
3.3498e-07
3.34421e-07
3.34218e-07
3.34161e-07
3.34152e-07
3.34153e-07
3.34164e-07
3.34221e-07
3.34423e-07
3.34987e-07
3.36358e-07
3.39404e-07
3.45802e-07
3.58914e-07
3.86124e-07
4.46647e-07
6.05512e-07
1.14915e-06
3.90576e-06
1.94929e-05
2.06171e-05
4.17837e-06
1.22481e-06
6.32271e-07
4.58632e-07
3.92424e-07
3.62436e-07
3.47864e-07
3.40711e-07
3.37296e-07
3.35758e-07
3.35126e-07
3.34901e-07
3.34841e-07
3.34835e-07
3.34839e-07
3.3485e-07
3.34906e-07
3.35117e-07
3.35733e-07
3.37267e-07
3.40718e-07
3.47983e-07
3.62772e-07
3.93091e-07
4.59691e-07
6.33486e-07
1.22651e-06
4.17462e-06
2.05896e-05
2.21184e-05
4.55836e-06
1.33624e-06
6.72056e-07
4.7713e-07
4.02318e-07
3.68086e-07
3.5136e-07
3.43138e-07
3.39214e-07
3.37437e-07
3.36688e-07
3.36402e-07
3.3631e-07
3.36294e-07
3.36305e-07
3.36338e-07
3.36429e-07
3.36689e-07
3.3739e-07
3.39113e-07
3.43017e-07
3.51314e-07
3.68273e-07
4.02952e-07
4.78422e-07
6.73946e-07
1.33986e-06
4.55609e-06
2.20829e-05
2.41309e-05
5.09532e-06
1.50164e-06
7.30719e-07
5.05899e-07
4.16798e-07
3.76606e-07
3.57181e-07
3.47722e-07
3.43205e-07
3.41095e-07
3.40118e-07
3.39667e-07
3.39468e-07
3.39405e-07
3.39433e-07
3.39542e-07
3.39758e-07
3.40179e-07
3.4107e-07
3.43052e-07
3.4744e-07
3.5686e-07
3.76453e-07
4.17135e-07
5.07043e-07
7.33362e-07
1.50805e-06
5.09616e-06
2.40858e-05
2.68461e-05
5.87029e-06
1.75664e-06
8.20036e-07
5.47052e-07
4.38328e-07
3.90464e-07
3.67835e-07
3.56976e-07
3.51685e-07
3.48983e-07
3.475e-07
3.46646e-07
3.46175e-07
3.45988e-07
3.46048e-07
3.46339e-07
3.46873e-07
3.47717e-07
3.49092e-07
3.51578e-07
3.56577e-07
3.67176e-07
3.8977e-07
4.38072e-07
5.4796e-07
8.23373e-07
1.7669e-06
5.87726e-06
2.68012e-05
3.07607e-05
7.03115e-06
2.17192e-06
9.64456e-07
6.11135e-07
4.74772e-07
4.16003e-07
3.89313e-07
3.76584e-07
3.69877e-07
3.65844e-07
3.63183e-07
3.61416e-07
3.60344e-07
3.59882e-07
3.59993e-07
3.60661e-07
3.61889e-07
3.63716e-07
3.66291e-07
3.7005e-07
3.76277e-07
3.88417e-07
4.14665e-07
4.7363e-07
6.11037e-07
9.67789e-07
2.18706e-06
7.04783e-06
3.07111e-05
3.62882e-05
8.83823e-06
2.88266e-06
1.21358e-06
7.21497e-07
5.45283e-07
4.70051e-07
4.3679e-07
4.20284e-07
4.09871e-07
4.02453e-07
3.97021e-07
3.93257e-07
3.90919e-07
3.89871e-07
3.90058e-07
3.91468e-07
3.94121e-07
3.98094e-07
4.03549e-07
4.10748e-07
4.20567e-07
4.36121e-07
4.68449e-07
5.42808e-07
7.1907e-07
1.2149e-06
2.9029e-06
8.87852e-06
3.62214e-05
4.44179e-05
1.17039e-05
4.16564e-06
1.69207e-06
9.48622e-07
6.98199e-07
6.02032e-07
5.55975e-07
5.27022e-07
5.04589e-07
4.87987e-07
4.75686e-07
4.67377e-07
4.62205e-07
4.59827e-07
4.60113e-07
4.63062e-07
4.68794e-07
4.7759e-07
4.90098e-07
5.0678e-07
5.28748e-07
5.56654e-07
6.00877e-07
6.94319e-07
9.42079e-07
1.68816e-06
4.19023e-06
1.17781e-05
4.43821e-05
5.77136e-05
1.64734e-05
6.60154e-06
2.80674e-06
1.55656e-06
1.14991e-06
9.83394e-07
8.86944e-07
8.17623e-07
7.64719e-07
7.24575e-07
6.94954e-07
6.74396e-07
6.61527e-07
6.55457e-07
6.55776e-07
6.62511e-07
6.76134e-07
6.97612e-07
7.2814e-07
7.69124e-07
8.22452e-07
8.91196e-07
9.85184e-07
1.14642e-06
1.54589e-06
2.79427e-06
6.63589e-06
1.66116e-05
5.77895e-05
8.45246e-05
2.26522e-05
1.14622e-05
5.82519e-06
3.74172e-06
2.90567e-06
2.44424e-06
2.12224e-06
1.88262e-06
1.70237e-06
1.56865e-06
1.47271e-06
1.40809e-06
1.36818e-06
1.34923e-06
1.34965e-06
1.3695e-06
1.41061e-06
1.47798e-06
1.57664e-06
1.71337e-06
1.89674e-06
2.13893e-06
2.46091e-06
2.91634e-06
3.74236e-06
5.82472e-06
1.1521e-05
2.28741e-05
8.48568e-05
0.000108415
3.14419e-05
2.05689e-05
1.44641e-05
1.1583e-05
9.71328e-06
8.32841e-06
7.3027e-06
6.52304e-06
5.92694e-06
5.47917e-06
5.15587e-06
4.93489e-06
4.79683e-06
4.73005e-06
4.72946e-06
4.79526e-06
4.933e-06
5.15505e-06
5.48082e-06
5.93098e-06
6.53008e-06
7.31486e-06
8.35397e-06
9.75003e-06
1.16334e-05
1.454e-05
2.06921e-05
3.1819e-05
0.000109187
0.00113611
0.00017071
8.94377e-05
5.8788e-05
4.53811e-05
3.75938e-05
3.24551e-05
2.88704e-05
2.6241e-05
2.42636e-05
2.27939e-05
2.17474e-05
2.10333e-05
2.05791e-05
2.03559e-05
2.03516e-05
2.05661e-05
2.10111e-05
2.17165e-05
2.27649e-05
2.42263e-05
2.61909e-05
2.87853e-05
3.23577e-05
3.74993e-05
4.53157e-05
5.8812e-05
8.96894e-05
0.000171656
0.00114321
0.000932484
0.000138297
7.52621e-05
5.10469e-05
4.03628e-05
3.39681e-05
2.95796e-05
2.64052e-05
2.40824e-05
2.23781e-05
2.11116e-05
2.01718e-05
1.95035e-05
1.90798e-05
1.8877e-05
1.88833e-05
1.90992e-05
1.95365e-05
2.02186e-05
2.11659e-05
2.24473e-05
2.41721e-05
2.65412e-05
2.97349e-05
3.41226e-05
4.04849e-05
5.1075e-05
7.50617e-05
0.000137295
0.000923938
9.09577e-05
3.26509e-05
2.18845e-05
1.65146e-05
1.39625e-05
1.24466e-05
1.13044e-05
1.03165e-05
9.44823e-06
8.71916e-06
8.13611e-06
7.68977e-06
7.36803e-06
7.16102e-06
7.06082e-06
7.06296e-06
7.16713e-06
7.37697e-06
7.69919e-06
8.14316e-06
8.72201e-06
9.44641e-06
1.031e-05
1.1285e-05
1.24105e-05
1.39091e-05
1.64382e-05
2.17555e-05
3.19868e-05
9.00108e-05
7.20874e-05
2.184e-05
1.33545e-05
8.53489e-06
6.08222e-06
4.77266e-06
3.97972e-06
3.43693e-06
3.03485e-06
2.72633e-06
2.49239e-06
2.3204e-06
2.19973e-06
2.12371e-06
2.08715e-06
2.08731e-06
2.12404e-06
2.19967e-06
2.31808e-06
2.48724e-06
2.71752e-06
3.02231e-06
3.42228e-06
3.96693e-06
4.77336e-06
6.09928e-06
8.55235e-06
1.32829e-05
2.15681e-05
7.16751e-05
5.00908e-05
1.75414e-05
9.20564e-06
4.97415e-06
2.88866e-06
1.91991e-06
1.47289e-06
1.23822e-06
1.09432e-06
9.90504e-07
9.13834e-07
8.58362e-07
8.19945e-07
7.95892e-07
7.84316e-07
7.84261e-07
7.95694e-07
8.19512e-07
8.5757e-07
9.12718e-07
9.89125e-07
1.09325e-06
1.23896e-06
1.47955e-06
1.94381e-06
2.93363e-06
5.00804e-06
9.16026e-06
1.73638e-05
4.99954e-05
3.89334e-05
1.35902e-05
6.50041e-06
3.05855e-06
1.55669e-06
9.68429e-07
7.27657e-07
6.20088e-07
5.61331e-07
5.22626e-07
4.95177e-07
4.75348e-07
4.60538e-07
4.51082e-07
4.46444e-07
4.46274e-07
4.50579e-07
4.59752e-07
4.74461e-07
4.94914e-07
5.22729e-07
5.62226e-07
6.22947e-07
7.35328e-07
9.86587e-07
1.58512e-06
3.08007e-06
6.46655e-06
1.34946e-05
3.89843e-05
3.20899e-05
1.11755e-05
4.63307e-06
1.96354e-06
9.88046e-07
6.32719e-07
4.9178e-07
4.26589e-07
3.9076e-07
3.69057e-07
3.54659e-07
3.44686e-07
3.37733e-07
3.3331e-07
3.31125e-07
3.31023e-07
3.33025e-07
3.3734e-07
3.44345e-07
3.5462e-07
3.69551e-07
3.92255e-07
4.29725e-07
4.96612e-07
6.423e-07
1.00052e-06
1.96904e-06
4.60706e-06
1.11319e-05
3.21873e-05
2.74858e-05
9.41691e-06
3.42742e-06
1.37422e-06
7.2207e-07
4.92214e-07
3.94676e-07
3.48848e-07
3.25006e-07
3.11143e-07
3.02404e-07
2.96606e-07
2.92732e-07
2.90316e-07
2.89121e-07
2.89043e-07
2.90107e-07
2.92469e-07
2.96429e-07
3.0252e-07
3.11801e-07
3.26518e-07
3.51431e-07
3.9809e-07
4.95759e-07
7.25331e-07
1.37448e-06
3.41155e-06
9.39982e-06
2.75617e-05
2.42266e-05
8.05619e-06
2.67798e-06
1.06217e-06
5.86092e-07
4.18339e-07
3.46732e-07
3.13454e-07
2.96095e-07
2.86193e-07
2.80163e-07
2.76324e-07
2.73856e-07
2.72355e-07
2.7162e-07
2.71574e-07
2.72237e-07
2.73732e-07
2.76303e-07
2.80391e-07
2.86829e-07
2.97268e-07
3.15153e-07
3.48717e-07
4.20085e-07
5.87021e-07
1.06131e-06
2.66733e-06
8.04836e-06
2.4289e-05
2.1776e-05
6.99676e-06
2.19664e-06
8.7941e-07
5.09326e-07
3.75066e-07
3.20383e-07
2.94841e-07
2.81571e-07
2.74148e-07
2.69759e-07
2.67063e-07
2.65388e-07
2.64395e-07
2.63919e-07
2.63895e-07
2.64339e-07
2.65346e-07
2.67107e-07
2.69975e-07
2.74612e-07
2.82305e-07
2.95757e-07
3.21251e-07
3.75588e-07
5.09333e-07
8.7849e-07
2.19035e-06
6.99712e-06
2.18325e-05
1.99681e-05
6.19268e-06
1.87779e-06
7.66008e-07
4.59219e-07
3.48826e-07
3.04808e-07
2.84234e-07
2.73682e-07
2.67924e-07
2.64631e-07
2.62681e-07
2.61511e-07
2.60836e-07
2.60519e-07
2.60507e-07
2.60811e-07
2.615e-07
2.62726e-07
2.64774e-07
2.68187e-07
2.7404e-07
2.84586e-07
3.04971e-07
3.48579e-07
4.58585e-07
7.65369e-07
1.87498e-06
6.19822e-06
2.00122e-05
1.86364e-05
5.59696e-06
1.66259e-06
6.9337e-07
4.27206e-07
3.33157e-07
2.95468e-07
2.78017e-07
2.6924e-07
2.64593e-07
2.62036e-07
2.60585e-07
2.59747e-07
2.59279e-07
2.59063e-07
2.59056e-07
2.59264e-07
2.5974e-07
2.60605e-07
2.62098e-07
2.64693e-07
2.69343e-07
2.78042e-07
2.953e-07
3.32703e-07
4.26614e-07
6.93096e-07
1.66234e-06
5.60511e-06
1.86708e-05
1.767e-05
5.16864e-06
1.51854e-06
6.4587e-07
4.06582e-07
3.2341e-07
2.89821e-07
2.74358e-07
2.66717e-07
2.62788e-07
2.6071e-07
2.59583e-07
2.58961e-07
2.58624e-07
2.58472e-07
2.58467e-07
2.58611e-07
2.58947e-07
2.59576e-07
2.6071e-07
2.62784e-07
2.66678e-07
2.74232e-07
2.89554e-07
3.22985e-07
4.06161e-07
6.4583e-07
1.51938e-06
5.17775e-06
1.76977e-05
1.69965e-05
4.87452e-06
1.42368e-06
6.15249e-07
3.93395e-07
3.17321e-07
2.86415e-07
2.72226e-07
2.65301e-07
2.61819e-07
2.60037e-07
2.5911e-07
2.58619e-07
2.58362e-07
2.58249e-07
2.58244e-07
2.58348e-07
2.58597e-07
2.59082e-07
2.59999e-07
2.61758e-07
2.65195e-07
2.7205e-07
2.86148e-07
3.1698e-07
3.93116e-07
6.15276e-07
1.42483e-06
4.88365e-06
1.70197e-05
1.65698e-05
4.69087e-06
1.366e-06
5.97139e-07
3.85544e-07
3.13734e-07
2.84466e-07
2.71047e-07
2.64545e-07
2.61322e-07
2.59709e-07
2.58894e-07
2.58476e-07
2.58265e-07
2.58172e-07
2.58167e-07
2.58249e-07
2.5845e-07
2.58855e-07
2.59652e-07
2.61236e-07
2.64417e-07
2.70864e-07
2.84225e-07
3.13465e-07
3.8536e-07
5.9724e-07
1.36723e-06
4.6996e-06
1.65901e-05
1.63626e-05
4.6032e-06
1.33879e-06
5.8863e-07
3.81866e-07
3.12065e-07
2.83576e-07
2.70523e-07
2.64219e-07
2.61115e-07
2.59578e-07
2.58812e-07
2.58426e-07
2.58234e-07
2.58151e-07
2.58146e-07
2.58219e-07
2.58399e-07
2.58769e-07
2.59515e-07
2.61023e-07
2.64088e-07
2.70345e-07
2.83356e-07
3.11833e-07
3.81723e-07
5.88743e-07
1.33995e-06
4.61112e-06
1.63815e-05
1.63623e-05
4.60332e-06
1.33885e-06
5.88645e-07
3.81876e-07
3.12072e-07
2.83583e-07
2.7053e-07
2.64226e-07
2.61122e-07
2.59583e-07
2.58816e-07
2.5843e-07
2.58237e-07
2.58154e-07
2.58149e-07
2.58223e-07
2.58405e-07
2.58777e-07
2.59525e-07
2.61035e-07
2.64101e-07
2.70358e-07
2.83368e-07
3.11842e-07
3.81729e-07
5.88744e-07
1.33995e-06
4.6111e-06
1.63813e-05
1.65689e-05
4.69126e-06
1.36616e-06
5.97183e-07
3.85572e-07
3.13756e-07
2.84488e-07
2.7107e-07
2.64568e-07
2.61344e-07
2.59727e-07
2.58907e-07
2.58486e-07
2.58272e-07
2.5818e-07
2.58176e-07
2.58262e-07
2.58468e-07
2.5888e-07
2.59683e-07
2.61274e-07
2.64459e-07
2.70907e-07
2.84265e-07
3.13497e-07
3.85381e-07
5.97246e-07
1.36725e-06
4.69954e-06
1.65894e-05
1.69951e-05
4.87509e-06
1.42392e-06
6.15315e-07
3.93439e-07
3.1736e-07
2.86458e-07
2.72273e-07
2.65347e-07
2.6186e-07
2.6007e-07
2.59134e-07
2.58636e-07
2.58375e-07
2.58261e-07
2.58259e-07
2.5837e-07
2.58629e-07
2.59126e-07
2.60056e-07
2.61827e-07
2.65275e-07
2.72133e-07
2.86228e-07
3.17049e-07
3.93166e-07
6.15297e-07
1.42488e-06
4.88353e-06
1.70183e-05
1.76682e-05
5.16925e-06
1.51881e-06
6.45943e-07
4.0664e-07
3.23472e-07
2.89897e-07
2.74442e-07
2.66799e-07
2.62858e-07
2.60764e-07
2.59621e-07
2.58985e-07
2.58641e-07
2.58488e-07
2.58488e-07
2.58643e-07
2.58995e-07
2.59643e-07
2.60799e-07
2.62894e-07
2.66806e-07
2.74371e-07
2.89694e-07
3.23114e-07
4.06264e-07
6.45878e-07
1.51945e-06
5.17746e-06
1.76951e-05
1.86345e-05
5.59732e-06
1.66268e-06
6.93434e-07
4.27282e-07
3.33259e-07
2.95601e-07
2.78162e-07
2.69376e-07
2.64704e-07
2.62117e-07
2.60638e-07
2.5978e-07
2.593e-07
2.59082e-07
2.59082e-07
2.59306e-07
2.59806e-07
2.60699e-07
2.62226e-07
2.64855e-07
2.69535e-07
2.78256e-07
2.95525e-07
3.32923e-07
4.26805e-07
6.93198e-07
1.66242e-06
5.60431e-06
1.86666e-05
1.99665e-05
6.19223e-06
1.87739e-06
7.6604e-07
4.59329e-07
3.49008e-07
3.05043e-07
2.84478e-07
2.73899e-07
2.68092e-07
2.64746e-07
2.62752e-07
2.61551e-07
2.60859e-07
2.60539e-07
2.60537e-07
2.60863e-07
2.61584e-07
2.62851e-07
2.64946e-07
2.6841e-07
2.74312e-07
2.84896e-07
3.05302e-07
3.48912e-07
4.58894e-07
7.65567e-07
1.87483e-06
6.19647e-06
2.00058e-05
2.17752e-05
6.99474e-06
2.19544e-06
8.79409e-07
5.09489e-07
3.75394e-07
3.20789e-07
2.95234e-07
2.81895e-07
2.74382e-07
2.69908e-07
2.67147e-07
2.6543e-07
2.64417e-07
2.63938e-07
2.63928e-07
2.64401e-07
2.65448e-07
2.67263e-07