/*--------------------------------*- C++ -*----------------------------------*\
| =========                 |                                                 |
| \\      /  F ield         | OpenFOAM: The Open Source CFD Toolbox           |
|  \\    /   O peration     | Version:  2312                                  |
|   \\  /    A nd           | Website:  www.openfoam.com                      |
|    \\/     M anipulation  |                                                 |
\*---------------------------------------------------------------------------*/
FoamFile
{
    version     2.0;
    format      ascii;
    arch        "LSB;label=32;scalar=64";
    class       volScalarField;
    location    "650";
    object      k;
}
// * * * * * * * * * * * * * * * * * * * * * * * * * * * * * * * * * * * * * //

dimensions      [0 2 -2 0 0 0 0];

internalField   nonuniform List<scalar> 
27000
(
0.00025834
0.000129137
0.000107312
9.56748e-05
9.02623e-05
8.68871e-05
8.4304e-05
8.20341e-05
8.01393e-05
7.86e-05
7.73637e-05
7.63684e-05
7.56089e-05
7.51084e-05
7.48655e-05
7.48772e-05
7.51435e-05
7.5667e-05
7.6446e-05
7.74426e-05
7.86916e-05
8.02431e-05
8.21468e-05
8.44202e-05
8.69972e-05
9.035e-05
9.57145e-05
0.000107272
0.000128992
0.000257994
9.80275e-05
2.14424e-05
2.81864e-05
3.06192e-05
3.24056e-05
3.35832e-05
3.43307e-05
3.47775e-05
3.50233e-05
3.51705e-05
3.527e-05
3.53393e-05
3.53851e-05
3.5413e-05
3.54264e-05
3.54265e-05
3.54132e-05
3.53849e-05
3.53378e-05
3.5266e-05
3.51643e-05
3.50141e-05
3.47656e-05
3.43181e-05
3.35703e-05
3.23897e-05
3.05969e-05
2.8143e-05
2.13932e-05
9.79062e-05
0.00010124
3.47289e-05
2.881e-05
2.73434e-05
2.80339e-05
2.89205e-05
2.9665e-05
3.02871e-05
3.07727e-05
3.11474e-05
3.14378e-05
3.16595e-05
3.18203e-05
3.19239e-05
3.19725e-05
3.19672e-05
3.19085e-05
3.17955e-05
3.16269e-05
3.13991e-05
3.11049e-05
3.07309e-05
3.02528e-05
2.96477e-05
2.89262e-05
2.8058e-05
2.73762e-05
2.88029e-05
3.46247e-05
0.000101183
9.4894e-05
3.51491e-05
2.87606e-05
2.86148e-05
2.94776e-05
3.02689e-05
3.08825e-05
3.13593e-05
3.17304e-05
3.20156e-05
3.22356e-05
3.24027e-05
3.25237e-05
3.26015e-05
3.26372e-05
3.26314e-05
3.25847e-05
3.24974e-05
3.23695e-05
3.21989e-05
3.19808e-05
3.17043e-05
3.13505e-05
3.08978e-05
3.03105e-05
2.95392e-05
2.86777e-05
2.87811e-05
3.50954e-05
9.49057e-05
9.0414e-05
3.41598e-05
2.90359e-05
2.97645e-05
3.07832e-05
3.15341e-05
3.206e-05
3.24336e-05
3.27045e-05
3.29024e-05
3.30489e-05
3.31569e-05
3.32335e-05
3.32818e-05
3.33033e-05
3.32984e-05
3.32678e-05
3.32122e-05
3.31316e-05
3.3024e-05
3.28838e-05
3.26988e-05
3.2447e-05
3.20955e-05
3.15889e-05
3.08459e-05
2.98154e-05
2.90493e-05
3.41319e-05
9.04736e-05
8.6742e-05
3.38892e-05
2.94486e-05
3.05292e-05
3.16131e-05
3.23499e-05
3.28324e-05
3.31479e-05
3.33551e-05
3.34922e-05
3.3584e-05
3.3646e-05
3.36871e-05
3.37116e-05
3.37215e-05
3.37179e-05
3.37013e-05
3.36722e-05
3.36298e-05
3.35708e-05
3.34871e-05
3.33629e-05
3.31715e-05
3.28714e-05
3.23983e-05
3.16591e-05
3.05574e-05
2.94488e-05
3.38734e-05
8.68238e-05
8.35849e-05
3.39347e-05
3.0072e-05
3.11449e-05
3.21742e-05
3.28686e-05
3.33124e-05
3.35864e-05
3.37499e-05
3.38443e-05
3.3897e-05
3.39257e-05
3.39408e-05
3.39477e-05
3.39493e-05
3.39468e-05
3.3941e-05
3.39316e-05
3.3917e-05
3.38922e-05
3.3847e-05
3.37629e-05
3.361e-05
3.33438e-05
3.2901e-05
3.21976e-05
3.1149e-05
3.00525e-05
3.39222e-05
8.36731e-05
8.08401e-05
3.4088e-05
3.07188e-05
3.16788e-05
3.25963e-05
3.32166e-05
3.36089e-05
3.38419e-05
3.39698e-05
3.40327e-05
3.40581e-05
3.40642e-05
3.4062e-05
3.40575e-05
3.40537e-05
3.40522e-05
3.40535e-05
3.4057e-05
3.40604e-05
3.40579e-05
3.40382e-05
3.3982e-05
3.38595e-05
3.36284e-05
3.32319e-05
3.26003e-05
3.16662e-05
3.06928e-05
3.4081e-05
8.09295e-05
7.83122e-05
3.42399e-05
3.12648e-05
3.21186e-05
3.29234e-05
3.34611e-05
3.37943e-05
3.39844e-05
3.40803e-05
3.41187e-05
3.41254e-05
3.41175e-05
3.41053e-05
3.40944e-05
3.40879e-05
3.40871e-05
3.40923e-05
3.41029e-05
3.41163e-05
3.41268e-05
3.41236e-05
3.40886e-05
3.39944e-05
3.38025e-05
3.34629e-05
3.29147e-05
3.20984e-05
3.12396e-05
3.42394e-05
7.84108e-05
7.61594e-05
3.43683e-05
3.17037e-05
3.2469e-05
3.31749e-05
3.36367e-05
3.39126e-05
3.40612e-05
3.41283e-05
3.41474e-05
3.41417e-05
3.4126e-05
3.41091e-05
3.40958e-05
3.40884e-05
3.40879e-05
3.40947e-05
3.4108e-05
3.41257e-05
3.41429e-05
3.41502e-05
3.41321e-05
3.40642e-05
3.39122e-05
3.36301e-05
3.31604e-05
3.24477e-05
3.16829e-05
3.43727e-05
7.62466e-05
7.43871e-05
3.44714e-05
3.20474e-05
3.27443e-05
3.33697e-05
3.37652e-05
3.39899e-05
3.41017e-05
3.41443e-05
3.41486e-05
3.4135e-05
3.41157e-05
3.40976e-05
3.40842e-05
3.40771e-05
3.40768e-05
3.40836e-05
3.40969e-05
3.41153e-05
3.41351e-05
3.41489e-05
3.41441e-05
3.40996e-05
3.39842e-05
3.37544e-05
3.33537e-05
3.27251e-05
3.20317e-05
3.44787e-05
7.44617e-05
7.2985e-05
3.45496e-05
3.23068e-05
3.29531e-05
3.35165e-05
3.38587e-05
3.40416e-05
3.41232e-05
3.41463e-05
3.41397e-05
3.41213e-05
3.41008e-05
3.40834e-05
3.40711e-05
3.40647e-05
3.40645e-05
3.40705e-05
3.40825e-05
3.40998e-05
3.412e-05
3.41379e-05
3.41432e-05
3.41179e-05
3.40331e-05
3.38467e-05
3.35015e-05
3.29372e-05
3.22956e-05
3.45588e-05
7.30491e-05
7.19431e-05
3.46052e-05
3.24919e-05
3.31027e-05
3.36214e-05
3.39243e-05
3.40757e-05
3.41348e-05
3.41436e-05
3.41296e-05
3.41083e-05
3.40879e-05
3.40718e-05
3.40609e-05
3.40554e-05
3.40552e-05
3.40603e-05
3.40707e-05
3.40863e-05
3.4106e-05
3.41263e-05
3.41388e-05
3.41278e-05
3.40664e-05
3.39125e-05
3.36081e-05
3.309e-05
3.24843e-05
3.46154e-05
7.19994e-05
7.1253e-05
3.46406e-05
3.26108e-05
3.31991e-05
3.36887e-05
3.3966e-05
3.40968e-05
3.4141e-05
3.41406e-05
3.4122e-05
3.40992e-05
3.40793e-05
3.40643e-05
3.40547e-05
3.40499e-05
3.40497e-05
3.40539e-05
3.4063e-05
3.40772e-05
3.40963e-05
3.41178e-05
3.41349e-05
3.41334e-05
3.40873e-05
3.3955e-05
3.36772e-05
3.31888e-05
3.26055e-05
3.46512e-05
7.13042e-05
7.09086e-05
3.46574e-05
3.26687e-05
3.32462e-05
3.37217e-05
3.39862e-05
3.41069e-05
3.41438e-05
3.4139e-05
3.41181e-05
3.40948e-05
3.40751e-05
3.40609e-05
3.40519e-05
3.40475e-05
3.40473e-05
3.40511e-05
3.40595e-05
3.40729e-05
3.40916e-05
3.41137e-05
3.4133e-05
3.41362e-05
3.40977e-05
3.39759e-05
3.37111e-05
3.32372e-05
3.26646e-05
3.46681e-05
7.09571e-05
7.09064e-05
3.46568e-05
3.26685e-05
3.32462e-05
3.37217e-05
3.39864e-05
3.41071e-05
3.41441e-05
3.41392e-05
3.41184e-05
3.4095e-05
3.40754e-05
3.40611e-05
3.40521e-05
3.40477e-05
3.40475e-05
3.40514e-05
3.40598e-05
3.40733e-05
3.4092e-05
3.41141e-05
3.41334e-05
3.41366e-05
3.40981e-05
3.39762e-05
3.37114e-05
3.32372e-05
3.26643e-05
3.46672e-05
7.09548e-05
7.12467e-05
3.46386e-05
3.26101e-05
3.31989e-05
3.36888e-05
3.39663e-05
3.40973e-05
3.41417e-05
3.41413e-05
3.41227e-05
3.40999e-05
3.40799e-05
3.40649e-05
3.40552e-05
3.40505e-05
3.40503e-05
3.40546e-05
3.40638e-05
3.40782e-05
3.40974e-05
3.41191e-05
3.41362e-05
3.41348e-05
3.40886e-05
3.3956e-05
3.36779e-05
3.31889e-05
3.26047e-05
3.46483e-05
7.12971e-05
7.19329e-05
3.46019e-05
3.24907e-05
3.31023e-05
3.36215e-05
3.39249e-05
3.40767e-05
3.41359e-05
3.41449e-05
3.41308e-05
3.41094e-05
3.40889e-05
3.40726e-05
3.40617e-05
3.40562e-05
3.40561e-05
3.40613e-05
3.4072e-05
3.40879e-05
3.41079e-05
3.41284e-05
3.4141e-05
3.41301e-05
3.40685e-05
3.39144e-05
3.36094e-05
3.30903e-05
3.2483e-05
3.46106e-05
7.19872e-05
7.29714e-05
3.45448e-05
3.23049e-05
3.29524e-05
3.35167e-05
3.38596e-05
3.4043e-05
3.41249e-05
3.41481e-05
3.41415e-05
3.41228e-05
3.4102e-05
3.40844e-05
3.4072e-05
3.40656e-05
3.40656e-05
3.40718e-05
3.40842e-05
3.41019e-05
3.41225e-05
3.41408e-05
3.41463e-05
3.41211e-05
3.40362e-05
3.38495e-05
3.35035e-05
3.29379e-05
3.2294e-05
3.45519e-05
7.30314e-05
7.43709e-05
3.4465e-05
3.20447e-05
3.27432e-05
3.337e-05
3.37665e-05
3.3992e-05
3.41042e-05
3.41468e-05
3.41508e-05
3.41368e-05
3.41171e-05
3.40986e-05
3.40851e-05
3.40779e-05
3.40779e-05
3.4085e-05
3.40988e-05
3.41177e-05
3.41381e-05
3.41524e-05
3.41479e-05
3.41036e-05
3.39882e-05
3.37581e-05
3.33566e-05
3.27264e-05
3.20298e-05
3.44698e-05
7.44382e-05
7.61413e-05
3.43601e-05
3.16998e-05
3.24676e-05
3.31755e-05
3.36388e-05
3.39156e-05
3.40645e-05
3.41314e-05
3.41499e-05
3.41435e-05
3.41272e-05
3.41098e-05
3.40963e-05
3.40889e-05
3.40888e-05
3.4096e-05
3.411e-05
3.41283e-05
3.41462e-05
3.4154e-05
3.41364e-05
3.40688e-05
3.39169e-05
3.36346e-05
3.31641e-05
3.24495e-05
3.16809e-05
3.43617e-05
7.62167e-05
7.82928e-05
3.42295e-05
3.12596e-05
3.21171e-05
3.29247e-05
3.34643e-05
3.37985e-05
3.39886e-05
3.40838e-05
3.41212e-05
3.41269e-05
3.41182e-05
3.41054e-05
3.40944e-05
3.4088e-05
3.40875e-05
3.40934e-05
3.41047e-05
3.41189e-05
3.41302e-05
3.41276e-05
3.40932e-05
3.39993e-05
3.38076e-05
3.34678e-05
3.29189e-05
3.21006e-05
3.12374e-05
3.42263e-05
7.83747e-05
8.08201e-05
3.40751e-05
3.07124e-05
3.16777e-05
3.2599e-05
3.32213e-05
3.36143e-05
3.38468e-05
3.39735e-05
3.40348e-05
3.40589e-05
3.4064e-05
3.40612e-05
3.40565e-05
3.4053e-05
3.40521e-05
3.40542e-05
3.40586e-05
3.40629e-05
3.40612e-05
3.40421e-05
3.39864e-05
3.38643e-05
3.36333e-05
3.32367e-05
3.26043e-05
3.16682e-05
3.06898e-05
3.40655e-05
8.08938e-05
8.35661e-05
3.3919e-05
3.00651e-05
3.11452e-05
3.21788e-05
3.2875e-05
3.33188e-05
3.35913e-05
3.37529e-05
3.38453e-05
3.38964e-05
3.3924e-05
3.39386e-05
3.39456e-05
3.39476e-05
3.39459e-05
3.3941e-05
3.39327e-05
3.39191e-05
3.38952e-05
3.38507e-05
3.37669e-05
3.36142e-05
3.33479e-05
3.29048e-05
3.22005e-05
3.11498e-05
3.00479e-05
3.39035e-05
8.36324e-05
8.67208e-05
3.38712e-05
2.94434e-05
3.05317e-05
3.16196e-05
3.23574e-05
3.28386e-05
3.31516e-05
3.33562e-05
3.3491e-05
3.35812e-05
3.36424e-05
3.36832e-05
3.37081e-05
3.37187e-05
3.3716e-05
3.37006e-05
3.36727e-05
3.36314e-05
3.35733e-05
3.34903e-05
3.33663e-05
3.31748e-05
3.28741e-05
3.24002e-05
3.16599e-05
3.0556e-05
2.94423e-05
3.3852e-05
8.67774e-05
9.03876e-05
3.41364e-05
2.90296e-05
2.97679e-05
3.07901e-05
3.15407e-05
3.20639e-05
3.24341e-05
3.27021e-05
3.28979e-05
3.30432e-05
3.31508e-05
3.32277e-05
3.32767e-05
3.32991e-05
3.32953e-05
3.3266e-05
3.32117e-05
3.31322e-05
3.30256e-05
3.2886e-05
3.27012e-05
3.2449e-05
3.20967e-05
3.15886e-05
3.08435e-05
2.98101e-05
2.90379e-05
3.41046e-05
9.0422e-05
9.48583e-05
3.51177e-05
2.87506e-05
2.86166e-05
2.94817e-05
3.02711e-05
3.08809e-05
3.13541e-05
3.17228e-05
3.20069e-05
3.22265e-05
3.2394e-05
3.25157e-05
3.25945e-05
3.26313e-05
3.26267e-05
3.25812e-05
3.24951e-05
3.23683e-05
3.21986e-05
3.1981e-05
3.17046e-05
3.13504e-05
3.08968e-05
3.03076e-05
2.95334e-05
2.86675e-05
2.87624e-05
3.50615e-05
9.48494e-05
0.000101194
3.46901e-05
2.87886e-05
2.73363e-05
2.80286e-05
2.89135e-05
2.96538e-05
3.02739e-05
3.07591e-05
3.11341e-05
3.14254e-05
3.1648e-05
3.18097e-05
3.19143e-05
3.19638e-05
3.19595e-05
3.19016e-05
3.17894e-05
3.16214e-05
3.1394e-05
3.11e-05
3.07257e-05
3.02472e-05
2.96419e-05
2.89188e-05
2.80473e-05
2.736e-05
2.87737e-05
3.45942e-05
0.000101129
9.79743e-05
2.14249e-05
2.81618e-05
3.05975e-05
3.23851e-05
3.35638e-05
3.43117e-05
3.47591e-05
3.50059e-05
3.51543e-05
3.52547e-05
3.53243e-05
3.53702e-05
3.5398e-05
3.54111e-05
3.54108e-05
3.53969e-05
3.53679e-05
3.53202e-05
3.52477e-05
3.51446e-05
3.4993e-05
3.47431e-05
3.42947e-05
3.35454e-05
3.23628e-05
3.05683e-05
2.81131e-05
2.13757e-05
9.78479e-05
0.000258209
0.000129072
0.00010727
9.565e-05
9.02466e-05
8.68759e-05
8.42944e-05
8.20246e-05
8.01288e-05
7.85879e-05
7.73492e-05
7.63496e-05
7.55869e-05
7.50835e-05
7.48377e-05
7.48466e-05
7.511e-05
7.56307e-05
7.64078e-05
7.74079e-05
7.86552e-05
8.0204e-05
8.21049e-05
8.43751e-05
8.69492e-05
9.02993e-05
9.56612e-05
0.000107212
0.000128923
0.000257873
0.000212314
0.000107596
9.29957e-05
8.50113e-05
8.22722e-05
8.08677e-05
7.99291e-05
7.9075e-05
7.83128e-05
7.76348e-05
7.70861e-05
7.67192e-05
7.64994e-05
7.63553e-05
7.62771e-05
7.62635e-05
7.63141e-05
7.64299e-05
7.66248e-05
7.70007e-05
7.75298e-05
7.81758e-05
7.88615e-05
7.97014e-05
8.06618e-05
8.21286e-05
8.49877e-05
9.31525e-05
0.000108022
0.000213276
7.86482e-05
2.39283e-05
4.14259e-05
4.22563e-05
4.34947e-05
4.37097e-05
4.32935e-05
4.28555e-05
4.23379e-05
4.18072e-05
4.13339e-05
4.09561e-05
4.06832e-05
4.05083e-05
4.04229e-05
4.04226e-05
4.0508e-05
4.06845e-05
4.09609e-05
4.13439e-05
4.18227e-05
4.23623e-05
4.28991e-05
4.33962e-05
4.38471e-05
4.36577e-05
4.24497e-05
4.16306e-05
2.42277e-05
7.90466e-05
9.0377e-05
5.10667e-05
4.09991e-05
3.28038e-05
3.00778e-05
2.96083e-05
2.95575e-05
2.93787e-05
2.91737e-05
2.89733e-05
2.87936e-05
2.86482e-05
2.8539e-05
2.84718e-05
2.84459e-05
2.84593e-05
2.85121e-05
2.8605e-05
2.87343e-05
2.89022e-05
2.91035e-05
2.93187e-05
2.95213e-05
2.96661e-05
2.96463e-05
3.00527e-05
3.2764e-05
4.10981e-05
5.15887e-05
9.0616e-05
8.61278e-05
4.97943e-05
3.61264e-05
2.81581e-05
2.4756e-05
2.42547e-05
2.46459e-05
2.51242e-05
2.55106e-05
2.58353e-05
2.60753e-05
2.62424e-05
2.63532e-05
2.64243e-05
2.64665e-05
2.64844e-05
2.64773e-05
2.64391e-05
2.63568e-05
2.62134e-05
2.59852e-05
2.56482e-05
2.5211e-05
2.46556e-05
2.41626e-05
2.45779e-05
2.80103e-05
3.61891e-05
5.01665e-05
8.61696e-05
8.4327e-05
4.56156e-05
3.23136e-05
2.58051e-05
2.37748e-05
2.37451e-05
2.43859e-05
2.50884e-05
2.56699e-05
2.61265e-05
2.6469e-05
2.67146e-05
2.68808e-05
2.69857e-05
2.70424e-05
2.70569e-05
2.70282e-05
2.6948e-05
2.68009e-05
2.6566e-05
2.62186e-05
2.57329e-05
2.50928e-05
2.43108e-05
2.35907e-05
2.35998e-05
2.56876e-05
3.23582e-05
4.58613e-05
8.42343e-05
8.30753e-05
4.22604e-05
3.01089e-05
2.50539e-05
2.40883e-05
2.44706e-05
2.51586e-05
2.58384e-05
2.64145e-05
2.68698e-05
2.72138e-05
2.74626e-05
2.76333e-05
2.77411e-05
2.77974e-05
2.78077e-05
2.77707e-05
2.76786e-05
2.75174e-05
2.72684e-05
2.69099e-05
2.64231e-05
2.5801e-05
2.50697e-05
2.43456e-05
2.39697e-05
2.50182e-05
3.01781e-05
4.24137e-05
8.29273e-05
8.19151e-05
4.00447e-05
2.85422e-05
2.49272e-05
2.47462e-05
2.53243e-05
2.60027e-05
2.66195e-05
2.71347e-05
2.75421e-05
2.78507e-05
2.80747e-05
2.82289e-05
2.83262e-05
2.83758e-05
2.83824e-05
2.83447e-05
2.82561e-05
2.81048e-05
2.78756e-05
2.7552e-05
2.71203e-05
2.65764e-05
2.59364e-05
2.52549e-05
2.47097e-05
2.49656e-05
2.86443e-05
4.00969e-05
8.18016e-05
8.08701e-05
3.87451e-05
2.75689e-05
2.50558e-05
2.53526e-05
2.60513e-05
2.67117e-05
2.72686e-05
2.7717e-05
2.80651e-05
2.83259e-05
2.85137e-05
2.86423e-05
2.87228e-05
2.8763e-05
2.87668e-05
2.87332e-05
2.86567e-05
2.85277e-05
2.83339e-05
2.80617e-05
2.76988e-05
2.72374e-05
2.66772e-05
2.60321e-05
2.53753e-05
2.51353e-05
2.76639e-05
3.87705e-05
8.07678e-05
8.02628e-05
3.78769e-05
2.7064e-05
2.53358e-05
2.58729e-05
2.66245e-05
2.7264e-05
2.77689e-05
2.81561e-05
2.84459e-05
2.8657e-05
2.88059e-05
2.8906e-05
2.89678e-05
2.89981e-05
2.90001e-05
2.89731e-05
2.89127e-05
2.88111e-05
2.86577e-05
2.84397e-05
2.81434e-05
2.77541e-05
2.72567e-05
2.66387e-05
2.59232e-05
2.54232e-05
2.71407e-05
3.78868e-05
8.01457e-05
7.97382e-05
3.72753e-05
2.68029e-05
2.56092e-05
2.62852e-05
2.70584e-05
2.76754e-05
2.81362e-05
2.84709e-05
2.87092e-05
2.88751e-05
2.89875e-05
2.90608e-05
2.91048e-05
2.91258e-05
2.91268e-05
2.91072e-05
2.90635e-05
2.89891e-05
2.88741e-05
2.87054e-05
2.84662e-05
2.81351e-05
2.76855e-05
2.7088e-05
2.63404e-05
2.56847e-05
2.68585e-05
3.72755e-05
7.96428e-05
7.92783e-05
3.68548e-05
2.66743e-05
2.58349e-05
2.65925e-05
2.73749e-05
2.79707e-05
2.8395e-05
2.86871e-05
2.88828e-05
2.90109e-05
2.90926e-05
2.9143e-05
2.91719e-05
2.91853e-05
2.91858e-05
2.9173e-05
2.91442e-05
2.90934e-05
2.90109e-05
2.88828e-05
2.86891e-05
2.84029e-05
2.7989e-05
2.7408e-05
2.66416e-05
2.58929e-05
2.67113e-05
3.685e-05
7.9203e-05
7.8893e-05
3.65646e-05
2.66203e-05
2.60143e-05
2.6817e-05
2.7599e-05
2.81754e-05
2.85704e-05
2.88291e-05
2.8992e-05
2.90908e-05
2.91486e-05
2.91813e-05
2.91985e-05
2.92061e-05
2.92064e-05
2.91993e-05
2.91823e-05
2.91499e-05
2.90926e-05
2.89952e-05
2.88357e-05
2.85827e-05
2.8196e-05
2.76295e-05
2.68562e-05
2.60555e-05
2.66428e-05
3.65574e-05
7.88328e-05
7.85932e-05
3.63712e-05
2.6605e-05
2.615e-05
2.69753e-05
2.77516e-05
2.83111e-05
2.86837e-05
2.89178e-05
2.90569e-05
2.91348e-05
2.91757e-05
2.91958e-05
2.92049e-05
2.92085e-05
2.92087e-05
2.92058e-05
2.91972e-05
2.91779e-05
2.91382e-05
2.90625e-05
2.89268e-05
2.86975e-05
2.8331e-05
2.77775e-05
2.70052e-05
2.61777e-05
2.66172e-05
3.6363e-05
7.85433e-05
7.83883e-05
3.6253e-05
2.6606e-05
2.62421e-05
2.70773e-05
2.78467e-05
2.83935e-05
2.87507e-05
2.89687e-05
2.90925e-05
2.9157e-05
2.91872e-05
2.91995e-05
2.92035e-05
2.92046e-05
2.92049e-05
2.92045e-05
2.92013e-05
2.91901e-05
2.91614e-05
2.90992e-05
2.89786e-05
2.87646e-05
2.84118e-05
2.78686e-05
2.71003e-05
2.62612e-05
2.66121e-05
3.62445e-05
7.83447e-05
7.82848e-05
3.6197e-05
2.66096e-05
2.62885e-05
2.71273e-05
2.78924e-05
2.84323e-05
2.87815e-05
2.89915e-05
2.91078e-05
2.91659e-05
2.9191e-05
2.91996e-05
2.92012e-05
2.92011e-05
2.92015e-05
2.92023e-05
2.92015e-05
2.91942e-05
2.91707e-05
2.91149e-05
2.90016e-05
2.87952e-05
2.84494e-05
2.79119e-05
2.71467e-05
2.63035e-05
2.6613e-05
3.61885e-05
7.8244e-05
7.82862e-05
3.61969e-05
2.66094e-05
2.62882e-05
2.7127e-05
2.7892e-05
2.84319e-05
2.87811e-05
2.89911e-05
2.91074e-05
2.91655e-05
2.91907e-05
2.91992e-05
2.92009e-05
2.92008e-05
2.92011e-05
2.92018e-05
2.9201e-05
2.91936e-05
2.91701e-05
2.91143e-05
2.90009e-05
2.87945e-05
2.84486e-05
2.79112e-05
2.71462e-05
2.63033e-05
2.66132e-05
3.61887e-05
7.8245e-05
7.83922e-05
3.62528e-05
2.66056e-05
2.62413e-05
2.70765e-05
2.78458e-05
2.83924e-05
2.87494e-05
2.89674e-05
2.90912e-05
2.91558e-05
2.91861e-05
2.91985e-05
2.92025e-05
2.92036e-05
2.92038e-05
2.92033e-05
2.91998e-05
2.91885e-05
2.91596e-05
2.90972e-05
2.89765e-05
2.87624e-05
2.84096e-05
2.78665e-05
2.70986e-05
2.62603e-05
2.66126e-05
3.62452e-05
7.83479e-05
7.85994e-05
3.6371e-05
2.66047e-05
2.6149e-05
2.69742e-05
2.77501e-05
2.83092e-05
2.86815e-05
2.89155e-05
2.90547e-05
2.91328e-05
2.91739e-05
2.91941e-05
2.92033e-05
2.92068e-05
2.92069e-05
2.92037e-05
2.91949e-05
2.91752e-05
2.91352e-05
2.90591e-05
2.89232e-05
2.86937e-05
2.8327e-05
2.77737e-05
2.7002e-05
2.61757e-05
2.66178e-05
3.63642e-05
7.85493e-05
7.89011e-05
3.65647e-05
2.66207e-05
2.60138e-05
2.68158e-05
2.75969e-05
2.81724e-05
2.8567e-05
2.88256e-05
2.89886e-05
2.90878e-05
2.91461e-05
2.9179e-05
2.91965e-05
2.9204e-05
2.9204e-05
2.91966e-05
2.91792e-05
2.91463e-05
2.90884e-05
2.89905e-05
2.88304e-05
2.8577e-05
2.819e-05
2.76236e-05
2.68509e-05
2.60518e-05
2.66432e-05
3.65594e-05
7.88423e-05
7.92875e-05
3.68557e-05
2.66764e-05
2.58355e-05
2.65914e-05
2.73718e-05
2.79662e-05
2.83898e-05
2.86819e-05
2.88783e-05
2.90071e-05
2.90895e-05
2.91404e-05
2.91695e-05
2.91829e-05
2.9183e-05
2.91698e-05
2.91403e-05
2.90888e-05
2.90056e-05
2.88767e-05
2.86822e-05
2.83953e-05
2.79808e-05
2.73995e-05
2.66335e-05
2.58868e-05
2.67113e-05
3.68531e-05
7.92169e-05
7.97477e-05
3.72777e-05
2.68078e-05
2.56114e-05
2.62837e-05
2.70535e-05
2.76684e-05
2.81286e-05
2.84639e-05
2.87034e-05
2.88706e-05
2.89842e-05
2.90582e-05
2.91024e-05
2.91234e-05
2.91238e-05
2.91036e-05
2.9059e-05
2.89837e-05
2.88677e-05
2.8698e-05
2.84577e-05
2.81256e-05
2.76749e-05
2.70767e-05
2.63291e-05
2.56753e-05
2.68577e-05
3.728e-05
7.96622e-05
8.02716e-05
3.7882e-05
2.70728e-05
2.53392e-05
2.58696e-05
2.66161e-05
2.72533e-05
2.77583e-05
2.81471e-05
2.84392e-05
2.86525e-05
2.88029e-05
2.8904e-05
2.8966e-05
2.8996e-05
2.89973e-05
2.89693e-05
2.89078e-05
2.88051e-05
2.86504e-05
2.84312e-05
2.81335e-05
2.77428e-05
2.7244e-05
2.66247e-05
2.59086e-05
2.54106e-05
2.71394e-05
3.78932e-05
8.01712e-05
8.08775e-05
3.87544e-05
2.75826e-05
2.50588e-05
2.53448e-05
2.6037e-05
2.66961e-05
2.72549e-05
2.77069e-05
2.80586e-05
2.83223e-05
2.85121e-05
2.86415e-05
2.8722e-05
2.87617e-05
2.87645e-05
2.87295e-05
2.86516e-05
2.85211e-05
2.83259e-05
2.80522e-05
2.76879e-05
2.72249e-05
2.66631e-05
2.60164e-05
2.53588e-05
2.51213e-05
2.76638e-05
3.8781e-05
8.07876e-05
8.19173e-05
4.00642e-05
2.85615e-05
2.49268e-05
2.47298e-05
2.53023e-05
2.59822e-05
2.6604e-05
2.71252e-05
2.75377e-05
2.78498e-05
2.80757e-05
2.82304e-05
2.83272e-05
2.83757e-05
2.83807e-05
2.83413e-05
2.82508e-05
2.80977e-05
2.78668e-05
2.75417e-05
2.71087e-05
2.65635e-05
2.59221e-05
2.52391e-05
2.46934e-05
2.49549e-05
2.86498e-05
4.01185e-05
8.18291e-05
8.30899e-05
4.23201e-05
3.01249e-05
2.50445e-05
2.40614e-05
2.44416e-05
2.51358e-05
2.58248e-05
2.64093e-05
2.68707e-05
2.72179e-05
2.74677e-05
2.7638e-05
2.77444e-05
2.77988e-05
2.78069e-05
2.77677e-05
2.76733e-05
2.75098e-05
2.72589e-05
2.68989e-05
2.64113e-05
2.57887e-05
2.5057e-05
2.43327e-05
2.39575e-05
2.50116e-05
3.01873e-05
4.2477e-05
8.29876e-05
8.43583e-05
4.56906e-05
3.23284e-05
2.579e-05
2.37453e-05
2.37153e-05
2.43683e-05
2.5084e-05
2.56749e-05
2.61364e-05
2.64802e-05
2.67249e-05
2.68892e-05
2.69916e-05
2.70455e-05
2.70572e-05
2.70257e-05
2.69427e-05
2.67929e-05
2.65557e-05
2.62068e-05
2.57209e-05
2.50818e-05
2.43015e-05
2.35846e-05
2.35981e-05
2.56937e-05
3.23731e-05
4.59283e-05
8.43128e-05
8.61875e-05
4.98937e-05
3.6163e-05
2.81478e-05
2.47328e-05
2.42411e-05
2.46483e-05
2.5138e-05
2.55301e-05
2.58557e-05
2.60935e-05
2.62574e-05
2.63647e-05
2.64321e-05
2.64708e-05
2.64854e-05
2.64753e-05
2.64342e-05
2.63492e-05
2.62034e-05
2.59738e-05
2.56376e-05
2.52046e-05
2.46524e-05
2.41636e-05
2.45868e-05
2.8033e-05
3.62376e-05
5.024e-05
8.62629e-05
9.04748e-05
5.11877e-05
4.10378e-05
3.28057e-05
3.00794e-05
2.962e-05
2.95855e-05
2.94079e-05
2.91991e-05
2.89943e-05
2.88103e-05
2.86611e-05
2.85491e-05
2.84789e-05
2.84504e-05
2.84618e-05
2.85129e-05
2.86043e-05
2.87321e-05
2.88992e-05
2.91005e-05
2.93173e-05
2.95247e-05
2.96724e-05
2.9654e-05
3.00634e-05
3.27805e-05
4.11404e-05
5.16417e-05
9.0712e-05
7.87604e-05
2.39818e-05
4.14747e-05
4.23104e-05
4.35503e-05
4.37617e-05
4.33346e-05
4.28699e-05
4.23443e-05
4.18096e-05
4.13338e-05
4.09546e-05
4.0681e-05
4.05059e-05
4.04206e-05
4.04207e-05
4.05067e-05
4.06839e-05
4.0961e-05
4.1345e-05
4.18264e-05
4.23704e-05
4.2916e-05
4.34429e-05
4.39031e-05
4.3715e-05
4.24991e-05
4.16715e-05
2.42606e-05
7.91355e-05
0.000212572
0.000107717
9.30625e-05
8.50431e-05
8.22815e-05
8.08632e-05
7.99162e-05
7.90591e-05
7.83017e-05
7.76267e-05
7.7081e-05
7.6721e-05
7.65052e-05
7.63645e-05
7.62893e-05
7.62788e-05
7.63325e-05
7.64515e-05
7.66483e-05
7.70154e-05
7.7547e-05
7.82017e-05
7.89033e-05
7.97559e-05
8.07273e-05
8.22023e-05
8.50663e-05
9.32376e-05
0.000108115
0.00021346
0.000186323
9.35995e-05
8.2949e-05
7.74078e-05
7.61049e-05
7.5584e-05
7.51302e-05
7.44979e-05
7.39499e-05
7.3554e-05
7.32424e-05
7.29721e-05
7.27523e-05
7.26121e-05
7.25509e-05
7.25672e-05
7.26612e-05
7.28344e-05
7.30853e-05
7.33683e-05
7.37061e-05
7.4135e-05
7.47546e-05
7.53943e-05
7.58147e-05
7.626e-05
7.74376e-05
8.28021e-05
9.31448e-05
0.000185176
7.00532e-05
2.98763e-05
5.08522e-05
5.39683e-05
5.69996e-05
5.93632e-05
6.07535e-05
6.09672e-05
6.0381e-05
5.94212e-05
5.84002e-05
5.74879e-05
5.67697e-05
5.62849e-05
5.60472e-05
5.60595e-05
5.63204e-05
5.68238e-05
5.75521e-05
5.84644e-05
5.94773e-05
6.04258e-05
6.09954e-05
6.07147e-05
5.92507e-05
5.68227e-05
5.37422e-05
5.05889e-05
2.92267e-05
6.95643e-05
8.13656e-05
5.58103e-05
5.06096e-05
4.47133e-05
4.03353e-05
3.79566e-05
3.65691e-05
3.5646e-05
3.48989e-05
3.41764e-05
3.3531e-05
3.30038e-05
3.26144e-05
3.23607e-05
3.22378e-05
3.22417e-05
3.23721e-05
3.26325e-05
3.30305e-05
3.35622e-05
3.42091e-05
3.49301e-05
3.56726e-05
3.65594e-05
3.79833e-05
4.04126e-05
4.47818e-05
5.04497e-05
5.5111e-05
8.10552e-05
7.84236e-05
5.92695e-05
4.87337e-05
3.7102e-05
3.03758e-05
2.71946e-05
2.60633e-05
2.56617e-05
2.54466e-05
2.51743e-05
2.49394e-05
2.4763e-05
2.46442e-05
2.45712e-05
2.45331e-05
2.45245e-05
2.45455e-05
2.46027e-05
2.47093e-05
2.48766e-05
2.51129e-05
2.54076e-05
2.56804e-05
2.61166e-05
2.73105e-05
3.06415e-05
3.72636e-05
4.85762e-05
5.87721e-05
7.8325e-05
7.72671e-05
5.76697e-05
4.36457e-05
3.16966e-05
2.56993e-05
2.33925e-05
2.25267e-05
2.23206e-05
2.23416e-05
2.2397e-05
2.2448e-05
2.24965e-05
2.25492e-05
2.25929e-05
2.26123e-05
2.26015e-05
2.25625e-05
2.25059e-05
2.24524e-05
2.24057e-05
2.23717e-05
2.23554e-05
2.23945e-05
2.26655e-05
2.35832e-05
2.58431e-05
3.18274e-05
4.35286e-05
5.7355e-05
7.73356e-05
7.65549e-05
5.63129e-05
3.84188e-05
2.80267e-05
2.37154e-05
2.21352e-05
2.187e-05
2.19953e-05
2.22126e-05
2.24166e-05
2.25805e-05
2.27076e-05
2.2805e-05
2.28713e-05
2.29015e-05
2.28933e-05
2.28487e-05
2.27742e-05
2.26778e-05
2.2562e-05
2.24254e-05
2.22666e-05
2.21074e-05
2.20356e-05
2.23048e-05
2.38599e-05
2.80752e-05
3.83353e-05
5.61614e-05
7.67109e-05
7.59974e-05
5.44082e-05
3.44787e-05
2.58504e-05
2.26163e-05
2.19057e-05
2.20702e-05
2.24113e-05
2.27348e-05
2.29996e-05
2.32032e-05
2.33535e-05
2.34602e-05
2.35284e-05
2.35596e-05
2.35546e-05
2.35153e-05
2.34442e-05
2.33425e-05
2.3207e-05
2.30298e-05
2.28006e-05
2.25155e-05
2.22027e-05
2.20371e-05
2.27044e-05
2.5871e-05
3.44857e-05
5.4384e-05
7.6138e-05
7.55293e-05
5.21646e-05
3.20365e-05
2.45205e-05
2.21023e-05
2.19867e-05
2.2423e-05
2.28985e-05
2.32929e-05
2.35938e-05
2.38137e-05
2.39692e-05
2.40742e-05
2.41387e-05
2.41682e-05
2.41656e-05
2.41324e-05
2.40681e-05
2.39692e-05
2.38269e-05
2.36268e-05
2.33491e-05
2.2975e-05
2.25072e-05
2.20549e-05
2.21277e-05
2.44986e-05
3.20529e-05
5.21646e-05
7.56593e-05
7.49619e-05
4.99289e-05
3.03929e-05
2.36379e-05
2.19147e-05
2.21728e-05
2.27664e-05
2.33177e-05
2.37527e-05
2.40731e-05
2.42993e-05
2.44532e-05
2.45531e-05
2.46123e-05
2.46392e-05
2.4638e-05
2.46098e-05
2.4552e-05
2.44574e-05
2.43129e-05
2.40991e-05
2.37909e-05
2.33628e-05
2.28065e-05
2.21899e-05
2.18971e-05
2.35983e-05
3.04079e-05
4.99483e-05
7.50919e-05
7.44929e-05
4.79564e-05
2.92872e-05
2.31836e-05
2.19918e-05
2.24191e-05
2.30778e-05
2.36587e-05
2.41072e-05
2.44314e-05
2.46549e-05
2.48025e-05
2.4895e-05
2.49481e-05
2.49718e-05
2.49713e-05
2.49473e-05
2.48956e-05
2.48066e-05
2.46646e-05
2.44473e-05
2.41274e-05
2.36779e-05
2.3087e-05
2.24076e-05
2.1955e-05
2.31437e-05
2.92992e-05
4.79895e-05
7.46027e-05
7.41251e-05
4.63424e-05
2.85331e-05
2.2968e-05
2.2156e-05
2.26709e-05
2.33486e-05
2.39297e-05
2.43725e-05
2.46883e-05
2.49021e-05
2.50398e-05
2.51235e-05
2.517e-05
2.51904e-05
2.51902e-05
2.51697e-05
2.5124e-05
2.50421e-05
2.49068e-05
2.46951e-05
2.43791e-05
2.39319e-05
2.33407e-05
2.26479e-05
2.21187e-05
2.29364e-05
2.85423e-05
4.63831e-05
7.42165e-05
7.38477e-05
4.51068e-05
2.80173e-05
2.28716e-05
2.23268e-05
2.28928e-05
2.35704e-05
2.41384e-05
2.45657e-05
2.48665e-05
2.50667e-05
2.51928e-05
2.52673e-05
2.53074e-05
2.53246e-05
2.53243e-05
2.5307e-05
2.52669e-05
2.51928e-05
2.50671e-05
2.48665e-05
2.45634e-05
2.41311e-05
2.35551e-05
2.2868e-05
2.22961e-05
2.28506e-05
2.80272e-05
4.51508e-05
7.39249e-05
7.36493e-05
4.4227e-05
2.7682e-05
2.28335e-05
2.24696e-05
2.3067e-05
2.37384e-05
2.42901e-05
2.46998e-05
2.49845e-05
2.5171e-05
2.5286e-05
2.53522e-05
2.53868e-05
2.54012e-05
2.54009e-05
2.5386e-05
2.5351e-05
2.52843e-05
2.51684e-05
2.49803e-05
2.46927e-05
2.42785e-05
2.3721e-05
2.30445e-05
2.24464e-05
2.28219e-05
2.7694e-05
4.42709e-05
7.37164e-05
7.35208e-05
4.36669e-05
2.7484e-05
2.28213e-05
2.25695e-05
2.31854e-05
2.38505e-05
2.43889e-05
2.47843e-05
2.5056e-05
2.52317e-05
2.53381e-05
2.53981e-05
2.54286e-05
2.5441e-05
2.54406e-05
2.54276e-05
2.53962e-05
2.53353e-05
2.52274e-05
2.50497e-05
2.4775e-05
2.43758e-05
2.38335e-05
2.31659e-05
2.25518e-05
2.28155e-05
2.74967e-05
4.37081e-05
7.35811e-05
7.34575e-05
4.34017e-05
2.73937e-05
2.28195e-05
2.26205e-05
2.32452e-05
2.39066e-05
2.44378e-05
2.48253e-05
2.50899e-05
2.52595e-05
2.53613e-05
2.54179e-05
2.54463e-05
2.54576e-05
2.54572e-05
2.54451e-05
2.54159e-05
2.53581e-05
2.52547e-05
2.50828e-05
2.48154e-05
2.44245e-05
2.38903e-05
2.32274e-05
2.26056e-05
2.28158e-05
2.74054e-05
4.34345e-05
7.35142e-05
7.34565e-05
4.34023e-05
2.73943e-05
2.282e-05
2.26208e-05
2.32454e-05
2.39069e-05
2.44381e-05
2.48257e-05
2.50902e-05
2.52598e-05
2.53615e-05
2.5418e-05
2.54464e-05
2.54576e-05
2.54573e-05
2.54454e-05
2.54162e-05
2.53586e-05
2.52553e-05
2.50836e-05
2.48162e-05
2.44253e-05
2.3891e-05
2.32279e-05
2.26059e-05
2.28159e-05
2.74055e-05
4.3435e-05
7.35136e-05
7.35182e-05
4.36692e-05
2.74856e-05
2.28227e-05
2.25704e-05
2.31862e-05
2.38516e-05
2.43902e-05
2.47857e-05
2.50573e-05
2.52327e-05
2.53388e-05
2.53985e-05
2.54289e-05
2.54412e-05
2.5441e-05
2.54282e-05
2.53973e-05
2.53368e-05
2.52294e-05
2.50521e-05
2.47777e-05
2.43785e-05
2.38358e-05
2.31676e-05
2.25529e-05
2.28159e-05
2.7497e-05
4.37094e-05
7.35792e-05
7.36454e-05
4.42308e-05
2.76845e-05
2.28354e-05
2.24709e-05
2.30685e-05
2.37405e-05
2.42927e-05
2.47025e-05
2.49869e-05
2.51729e-05
2.52873e-05
2.5353e-05
2.53873e-05
2.54016e-05
2.54015e-05
2.53872e-05
2.53528e-05
2.5287e-05
2.5172e-05
2.49846e-05
2.46975e-05
2.42834e-05
2.37256e-05
2.30481e-05
2.24489e-05
2.28232e-05
2.76946e-05
4.42727e-05
7.37124e-05
7.3843e-05
4.51114e-05
2.80202e-05
2.28736e-05
2.23285e-05
2.28955e-05
2.35744e-05
2.41431e-05
2.45704e-05
2.48706e-05
2.50698e-05
2.51948e-05
2.52684e-05
2.5308e-05
2.53251e-05
2.53252e-05
2.53086e-05
2.52696e-05
2.51969e-05
2.50725e-05
2.48731e-05
2.45709e-05
2.4139e-05
2.35627e-05
2.28745e-05
2.2301e-05
2.28536e-05
2.80282e-05
4.51522e-05
7.3918e-05
7.41203e-05
4.63466e-05
2.85365e-05
2.29699e-05
2.21586e-05
2.26759e-05
2.33558e-05
2.39379e-05
2.43803e-05
2.46948e-05
2.49068e-05
2.50427e-05
2.5125e-05
2.51707e-05
2.51909e-05
2.51912e-05
2.51718e-05
2.51276e-05
2.50475e-05
2.49143e-05
2.47044e-05
2.439e-05
2.39436e-05
2.33523e-05
2.26585e-05
2.21275e-05
2.29423e-05
2.8544e-05
4.63825e-05
7.42057e-05
7.4489e-05
4.79584e-05
2.92913e-05
2.31856e-05
2.19965e-05
2.24283e-05
2.30902e-05
2.36719e-05
2.41191e-05
2.44408e-05
2.46613e-05
2.48062e-05
2.48967e-05
2.49487e-05
2.49722e-05
2.49724e-05
2.49498e-05
2.49001e-05
2.48136e-05
2.46743e-05
2.44597e-05
2.41422e-05
2.36943e-05
2.31038e-05
2.24234e-05
2.19688e-05
2.31541e-05
2.9303e-05
4.79858e-05
7.45873e-05
7.49605e-05
4.99271e-05
3.03979e-05
2.36408e-05
2.1924e-05
2.21894e-05
2.27869e-05
2.3338e-05
2.37698e-05
2.40857e-05
2.43074e-05
2.44575e-05
2.45548e-05
2.46126e-05
2.46392e-05
2.4639e-05
2.46126e-05
2.45573e-05
2.44658e-05