/*--------------------------------*- C++ -*----------------------------------*\
| =========                 |                                                 |
| \\      /  F ield         | OpenFOAM: The Open Source CFD Toolbox           |
|  \\    /   O peration     | Version:  2312                                  |
|   \\  /    A nd           | Website:  www.openfoam.com                      |
|    \\/     M anipulation  |                                                 |
\*---------------------------------------------------------------------------*/
FoamFile
{
    version     2.0;
    format      ascii;
    arch        "LSB;label=32;scalar=64";
    class       volScalarField;
    location    "650";
    object      nut;
}
// * * * * * * * * * * * * * * * * * * * * * * * * * * * * * * * * * * * * * //

dimensions      [0 2 -1 0 0 0 0];

internalField   nonuniform List<scalar> 
27000
(
3.94583e-06
6.69727e-06
9.35851e-06
1.17444e-05
1.4064e-05
1.62282e-05
1.81918e-05
1.98496e-05
2.1275e-05
2.24928e-05
2.3504e-05
2.43054e-05
2.49e-05
2.52953e-05
2.54936e-05
2.54956e-05
2.53012e-05
2.49096e-05
2.43178e-05
2.3516e-05
2.25059e-05
2.12889e-05
1.98633e-05
1.82044e-05
1.62385e-05
1.40708e-05
1.17469e-05
9.35666e-06
6.69341e-06
3.94315e-06
5.74467e-06
1.27619e-06
5.15277e-06
9.07109e-06
1.31477e-05
1.70206e-05
2.06745e-05
2.40685e-05
2.714e-05
2.98651e-05
3.22142e-05
3.41632e-05
3.56759e-05
3.67066e-05
3.72258e-05
3.72197e-05
3.66894e-05
3.56503e-05
3.41352e-05
3.21908e-05
2.98438e-05
2.7121e-05
2.40526e-05
2.06632e-05
1.70122e-05
1.31411e-05
9.06756e-06
5.14923e-06
1.27405e-06
5.7411e-06
9.21988e-06
7.10792e-06
1.45949e-05
2.62428e-05
3.69301e-05
4.62888e-05
5.48264e-05
6.27983e-05
7.0024e-05
7.63755e-05
8.1776e-05
8.61848e-05
8.9567e-05
9.18561e-05
9.3003e-05
9.29864e-05
9.18104e-05
8.95062e-05
8.61351e-05
8.17483e-05
7.6369e-05
7.00384e-05
6.28309e-05
5.4871e-05
4.63314e-05
3.69604e-05
2.62852e-05
1.46291e-05
7.09472e-06
9.21729e-06
1.21552e-05
1.08311e-05
2.62502e-05
5.28987e-05
7.8366e-05
9.64496e-05
0.000109984
0.000121037
0.000130281
0.000137908
0.000144133
0.000149042
0.000152703
0.000155139
0.000156351
0.000156342
0.000155118
0.000152689
0.000149057
0.000144189
0.000138004
0.000130403
0.00012117
0.000110091
9.65064e-05
7.84073e-05
5.30001e-05
2.63315e-05
1.08265e-05
1.2156e-05
1.49284e-05
1.44733e-05
3.71048e-05
7.65732e-05
0.000113518
0.00013928
0.000156125
0.000167986
0.000176805
0.000183148
0.000188122
0.000191909
0.000194659
0.000196458
0.000197347
0.000197348
0.000196466
0.000194688
0.00019197
0.000188216
0.000183263
0.000176897
0.000168087
0.000156201
0.000139325
0.000113583
7.67144e-05
3.71972e-05
1.44709e-05
1.49333e-05
1.74958e-05
1.84124e-05
4.7941e-05
9.56963e-05
0.000138224
0.000167592
0.000185598
0.000196942
0.000204415
0.00020943
0.000212929
0.000215407
0.000217122
0.00021821
0.000218741
0.000218745
0.000218224
0.000217154
0.000215463
0.000213009
0.000209524
0.000204506
0.000197028
0.000185683
0.000167723
0.00013836
9.58643e-05
4.80303e-05
1.84089e-05
1.75041e-05
1.9833e-05
2.2543e-05
5.8746e-05
0.000111924
0.000156167
0.000185435
0.00020306
0.00021336
0.000219457
0.00022314
0.000225424
0.000226874
0.000227796
0.000228347
0.000228607
0.00022861
0.000228357
0.000227818
0.000226914
0.00022548
0.000223208
0.00021953
0.000213436
0.000203148
0.000185553
0.000156313
0.000112074
5.87932e-05
2.2532e-05
1.98435e-05
2.19247e-05
2.67243e-05
6.92108e-05
0.000125894
0.000170154
0.000197613
0.000213565
0.000222407
0.000227202
0.000229781
0.000231162
0.000231904
0.000232302
0.000232508
0.000232597
0.000232598
0.000232514
0.000232316
0.00023193
0.000231201
0.000229831
0.000227261
0.000222472
0.000213644
0.000197708
0.000170244
0.000125989
6.92229e-05
2.67076e-05
2.19368e-05
2.37378e-05
3.08385e-05
7.89891e-05
0.000137826
0.00018111
0.000206234
0.000220136
0.000227416
0.000231047
0.000232761
0.00023351
0.000233798
0.000233882
0.00023389
0.000233883
0.000233883
0.000233893
0.00023389
0.000233815
0.000233537
0.000232797
0.00023109
0.000227465
0.00022019
0.000206283
0.000181118
0.000137854
7.89592e-05
3.08118e-05
2.37529e-05
2.52897e-05
3.47254e-05
8.78706e-05
0.000147835
0.000188926
0.000212207
0.000224307
0.000230216
0.000232891
0.000233963
0.00023429
0.000234305
0.000234218
0.000234127
0.000234074
0.000234074
0.000234129
0.000234223
0.000234315
0.000234306
0.000233985
0.000232917
0.000230244
0.000224335
0.00021223
0.000188935
0.000147814
8.78049e-05
3.46926e-05
2.53043e-05
2.65818e-05
3.82279e-05
9.56353e-05
0.000156216
0.000195378
0.000216573
0.000227044
0.000231812
0.000233745
0.000234359
0.000234418
0.000234282
0.000234115
0.000233984
0.000233915
0.000233915
0.000233984
0.000234116
0.000234285
0.000234424
0.000234367
0.000233753
0.000231818
0.000227046
0.000216567
0.000195352
0.00015615
9.55442e-05
3.81923e-05
2.65953e-05
2.76144e-05
4.12092e-05
0.000102067
0.000162913
0.000200398
0.000219782
0.000228885
0.000232748
0.000234128
0.000234429
0.000234323
0.000234111
0.000233915
0.000233777
0.000233707
0.000233706
0.000233775
0.000233912
0.000234108
0.000234319
0.000234423
0.000234118
0.000232732
0.000228862
0.000219746
0.000200338
0.000162816
0.000101961
4.11725e-05
2.76267e-05
2.83882e-05
4.35533e-05
0.000107014
0.00016794
0.00020406
0.000222041
0.000230106
0.000233302
0.000234294
0.000234391
0.00023419
0.000233944
0.000233744
0.000233611
0.000233546
0.000233545
0.000233608
0.000233738
0.000233935
0.000234177
0.000234373
0.00023427
0.00023327
0.000230063
0.000221983
0.000203976
0.00016782
0.000106901
4.35167e-05
2.83995e-05
2.89036e-05
4.51687e-05
0.000110373
0.000171333
0.000206459
0.00022348
0.000230853
0.000233616
0.000234363
0.000234338
0.000234086
0.000233829
0.000233633
0.000233509
0.00023345
0.000233448
0.000233504
0.000233625
0.000233816
0.000234068
0.000234312
0.000234329
0.000233573
0.000230799
0.00022341
0.000206366
0.000171211
0.000110258
4.51328e-05
2.89141e-05
2.91609e-05
4.59924e-05
0.000112068
0.00017303
0.000207644
0.000224179
0.000231209
0.000233758
0.000234388
0.000234306
0.000234033
0.000233773
0.000233581
0.000233463
0.000233407
0.000233405
0.000233458
0.000233572
0.000233758
0.000234012
0.000234277
0.00023435
0.00023371
0.000231149
0.000224105
0.000207548
0.000172911
0.000111956
4.59572e-05
2.91711e-05
2.91605e-05
4.59925e-05
0.000112069
0.000173031
0.000207643
0.000224179
0.000231208
0.000233759
0.000234389
0.000234307
0.000234035
0.000233774
0.000233583
0.000233464
0.000233408
0.000233407
0.000233459
0.000233573
0.000233759
0.000234014
0.000234279
0.000234352
0.000233712
0.00023115
0.000224106
0.00020755
0.000172913
0.000111958
4.59575e-05
2.91707e-05
2.89023e-05
4.5169e-05
0.000110374
0.000171334
0.000206458
0.000223479
0.000230853
0.000233617
0.000234365
0.000234341
0.00023409
0.000233832
0.000233636
0.000233512
0.000233453
0.000233452
0.000233508
0.000233629
0.000233821
0.000234073
0.000234317
0.000234334
0.000233576
0.000230801
0.000223412
0.000206369
0.000171217
0.000110266
4.51337e-05
2.89127e-05
2.83862e-05
4.35537e-05
0.000107018
0.000167943
0.00020406
0.00022204
0.000230107
0.000233305
0.000234298
0.000234395
0.000234195
0.000233949
0.000233748
0.000233615
0.000233551
0.00023355
0.000233613
0.000233744
0.000233943
0.000234185
0.00023438
0.000234276
0.000233275
0.000230067
0.000221986
0.000203982
0.00016783
0.000106912
4.35181e-05
2.83971e-05
2.7612e-05
4.12097e-05
0.000102073
0.000162919
0.000200401
0.000219785
0.000228888
0.000232752
0.000234133
0.000234435
0.000234329
0.000234116
0.000233919
0.00023378
0.00023371
0.000233711
0.000233781
0.000233919
0.000234116
0.000234328
0.000234432
0.000234126
0.000232739
0.000228867
0.000219751
0.000200346
0.000162831
0.000101977
4.11743e-05
2.76235e-05
2.6579e-05
3.82284e-05
9.56456e-05
0.000156229
0.000195388
0.000216581
0.000227051
0.00023182
0.000233753
0.000234367
0.000234424
0.000234286
0.000234118
0.000233986
0.000233917
0.000233918
0.000233989
0.000234122
0.000234293
0.000234434
0.000234377
0.000233762
0.000231826
0.000227053
0.000216574
0.000195364
0.00015617
9.55641e-05
3.81944e-05
2.65912e-05
2.52868e-05
3.47258e-05
8.78865e-05
0.000147858
0.000188946
0.000212223
0.000224321
0.000230228
0.000232901
0.000233971
0.000234295
0.000234307
0.000234218
0.000234126
0.000234072
0.000234074
0.00023413
0.000234227
0.000234321
0.000234315
0.000233995
0.000232928
0.000230254
0.000224346
0.000212244
0.000188954
0.000147838
8.78281e-05
3.46948e-05
2.52995e-05
2.3735e-05
3.08387e-05
7.90113e-05
0.000137863
0.000181142
0.000206262
0.000220159
0.000227434
0.00023106
0.00023277
0.000233514
0.000233797
0.000233878
0.000233884
0.000233876
0.000233878
0.00023389
0.00023389
0.000233819
0.000233544
0.000232807
0.000231102
0.000227479
0.000220207
0.000206307
0.000181154
0.000137886
7.89835e-05
3.08129e-05
2.37476e-05
2.19221e-05
2.6724e-05
6.9239e-05
0.000125947
0.000170207
0.000197658
0.0002136
0.000222432
0.00022722
0.000229791
0.000231166
0.000231902
0.000232294
0.000232497
0.000232585
0.000232587
0.000232506
0.000232313
0.000231932
0.000231208
0.000229843
0.000227278
0.000222494
0.000213672
0.000197744
0.000170291
0.00012603
6.92484e-05
2.67063e-05
2.19321e-05
1.98309e-05
2.25422e-05
5.87803e-05
0.000111994
0.000156239
0.000185496
0.000203108
0.000213395
0.000219482
0.000223155
0.00022543
0.000226872
0.000227787
0.000228334
0.000228593
0.000228597
0.000228347
0.000227814
0.000226916
0.00022549
0.000223227
0.000219557
0.000213472
0.000203194
0.000185609
0.000156374
0.000112128
5.88242e-05
2.25307e-05
1.98388e-05
1.74937e-05
1.84127e-05
4.79833e-05
9.57759e-05
0.000138307
0.00016767
0.000185659
0.00019699
0.000204452
0.000209457
0.000212944
0.000215411
0.000217117
0.0002182
0.000218729
0.000218734
0.000218218
0.000217154
0.000215472
0.000213028
0.000209555
0.00020455
0.000197086
0.000185755
0.000167806
0.000138444
9.59338e-05
4.80667e-05
1.84087e-05
1.74995e-05
1.49263e-05
1.4472e-05
3.71436e-05
7.66516e-05
0.000113599
0.000139356
0.000156195
0.000168047
0.000176854
0.000183189
0.00018815
0.000191923
0.000194664
0.000196457
0.000197345
0.000197348
0.000196472
0.000194701
0.000191992
0.00018825
0.000183312
0.000176963
0.000168167
0.000156295
0.000139431
0.000113689
7.67953e-05
3.7231e-05
1.44688e-05
1.49291e-05
1.21529e-05
1.08281e-05
2.62801e-05
5.29621e-05
7.84331e-05
9.65192e-05
0.000110058
0.000121108
0.000130342
0.000137955
0.000144166
0.000149063
0.000152717
0.00015515
0.000156364
0.00015636
0.000155143
0.00015272
0.000149097
0.000144238
0.000138064
0.000130476
0.000121255
0.000110187
9.66086e-05
7.85075e-05
5.30777e-05
2.63587e-05
1.08229e-05
1.21524e-05
9.21774e-06
7.10345e-06
1.46039e-05
2.62672e-05
3.69602e-05
4.63247e-05
5.48618e-05
6.28319e-05
7.00526e-05
7.63976e-05
8.17919e-05
8.61971e-05
8.95781e-05
9.18693e-05
9.30204e-05
9.30091e-05
9.18388e-05
8.95398e-05
8.61723e-05
8.17879e-05
7.64131e-05
7.00872e-05
6.28837e-05
5.4928e-05
4.63862e-05
3.70076e-05
2.63189e-05
1.46375e-05
7.09213e-06
9.21476e-06
5.74303e-06
1.27542e-06
5.15043e-06
9.06905e-06
1.31459e-05
1.70193e-05
2.06731e-05
2.40662e-05
2.71369e-05
2.98614e-05
3.22103e-05
3.41601e-05
3.56738e-05
3.67058e-05
3.72263e-05
3.72218e-05
3.66929e-05
3.56548e-05
3.41397e-05
3.21936e-05
2.98464e-05
2.71237e-05
2.40554e-05
2.06666e-05
1.70146e-05
1.31415e-05
9.06621e-06
5.1464e-06
1.27323e-06
5.73932e-06
3.94485e-06
6.69559e-06
9.35669e-06
1.1743e-05
1.40628e-05
1.62272e-05
1.81909e-05
1.98486e-05
2.12738e-05
2.24912e-05
2.3502e-05
2.43026e-05
2.48966e-05
2.52914e-05
2.54891e-05
2.54906e-05
2.52958e-05
2.49039e-05
2.43119e-05
2.35109e-05
2.25009e-05
2.12838e-05
1.98583e-05
1.81996e-05
1.62341e-05
1.40669e-05
1.17436e-05
9.35406e-06
6.69165e-06
3.94223e-06
3.57742e-06
6.11378e-06
8.71201e-06
1.10702e-05
1.34263e-05
1.56548e-05
1.77122e-05
1.9487e-05
2.103e-05
2.23531e-05
2.34605e-05
2.43593e-05
2.50443e-05
2.55024e-05
2.57308e-05
2.57285e-05
2.54955e-05
2.50329e-05
2.43443e-05
2.34475e-05
2.23379e-05
2.10113e-05
1.94605e-05
1.76868e-05
1.56348e-05
1.34145e-05
1.10687e-05
8.71946e-06
6.12603e-06
3.58564e-06
5.14585e-06
1.64325e-06
7.52113e-06
1.11293e-05
1.4724e-05
1.77309e-05
2.0283e-05
2.26536e-05
2.47445e-05
2.65486e-05
2.80668e-05
2.92814e-05
3.01851e-05
3.07879e-05
3.10925e-05
3.10982e-05
3.0804e-05
3.02081e-05
2.93029e-05
2.80798e-05
2.65574e-05
2.47537e-05
2.26703e-05
2.03249e-05
1.77814e-05
1.47747e-05
1.11741e-05
7.54961e-06
1.66295e-06
5.15903e-06
8.71128e-06
1.03894e-05
1.32218e-05
1.66382e-05
2.17782e-05
2.71946e-05
3.224e-05
3.66814e-05
4.07586e-05
4.44363e-05
4.76069e-05
5.01784e-05
5.20656e-05
5.33253e-05
5.39719e-05
5.40044e-05
5.34188e-05
5.22007e-05
5.02741e-05
4.76828e-05
4.4497e-05
4.08028e-05
3.67014e-05
3.22288e-05
2.71663e-05
2.17595e-05
1.66193e-05
1.32204e-05
1.04875e-05
8.72282e-06
1.158e-05
1.35812e-05
1.78307e-05
2.54267e-05
3.54039e-05
4.60269e-05
5.56226e-05
6.41199e-05
7.17162e-05
7.86286e-05
8.45113e-05
8.92232e-05
9.2699e-05
9.49967e-05
9.61707e-05
9.62441e-05
9.52071e-05
9.30132e-05
8.95845e-05
8.48951e-05
7.89803e-05
7.19656e-05
6.4185e-05
5.55444e-05
4.58547e-05
3.52038e-05
2.53274e-05
1.7807e-05
1.36626e-05
1.15827e-05
1.44167e-05
1.60364e-05
2.26059e-05
3.54182e-05
5.35605e-05
7.25916e-05
8.88507e-05
0.000101897
0.000112576
0.00012182
0.000129281
0.000135078
0.000139169
0.000141801
0.000143109
0.000143153
0.00014192
0.000139338
0.000135271
0.000129522
0.000122005
0.000112651
0.000101756
8.84929e-05
7.21265e-05
5.3221e-05
3.52103e-05
2.25318e-05
1.61053e-05
1.44087e-05
1.71215e-05
1.82226e-05
2.83669e-05
4.65669e-05
7.23187e-05
9.87165e-05
0.000121067
0.000137465
0.000149371
0.000158539
0.000165641
0.00017099
0.000174763
0.000177162
0.000178337
0.00017836
0.000177224
0.000174845
0.000171073
0.000165711
0.000158545
0.000149287
0.000137265
0.00012067
9.82219e-05
7.18861e-05
4.63785e-05
2.82817e-05
1.82747e-05
1.71061e-05
1.96334e-05
2.05494e-05
3.38229e-05
5.80205e-05
9.01496e-05
0.00012146
0.000146111
0.000163654
0.000175855
0.000184515
0.000190788
0.000195304
0.00019842
0.000200372
0.000201317
0.000201329
0.000200403
0.000198457
0.000195332
0.000190792
0.000184478
0.00017577
0.000163506
0.00014587
0.000121103
8.98791e-05
5.79569e-05
3.37981e-05
2.05566e-05
1.96197e-05
2.19281e-05
2.30322e-05
3.89937e-05
6.89398e-05
0.000105732
0.00013925
0.000164308
0.000181773
0.000193551
0.000201473
0.000206859
0.000210526
0.000212959
0.000214446
0.000215154
0.000215161
0.000214461
0.000212975
0.000210532
0.000206845
0.000201435
0.000193487
0.000181677
0.000164168
0.000139092
0.000105687
6.90353e-05
3.89982e-05
2.30357e-05
2.19143e-05
2.4031e-05
2.53531e-05
4.39375e-05
7.90895e-05
0.000119081
0.000152997
0.000177519
0.000194165
0.000205066
0.000212094
0.000216613
0.000219517
0.000221348
0.000222427
0.000222929
0.000222932
0.000222434
0.000221353
0.000219513
0.000216596
0.000212062
0.000205022
0.000194108
0.000177456
0.000152972
0.000119206
7.92916e-05
4.39718e-05
2.53657e-05
2.40134e-05
2.58764e-05
2.74411e-05
4.84072e-05
8.78411e-05
0.000130315
0.000163736
0.000187191
0.000202677
0.00021251
0.000218598
0.000222314
0.000224562
0.000225898
0.000226647
0.000226984
0.000226985
0.000226649
0.000225898
0.000224556
0.0002223
0.000218577
0.000212485
0.000202652
0.000187177
0.000163762
0.000130434
8.80716e-05
4.84653e-05
2.74612e-05
2.58608e-05
2.74411e-05
2.92611e-05
5.22895e-05
9.50065e-05
0.000138753
0.000171826
0.000194214
0.00020853
0.000217313
0.000222529
0.000225547
0.000227257
0.000228203
0.000228699
0.000228912
0.000228913
0.0002287
0.000228203
0.000227254
0.000225542
0.000222524
0.000217311
0.000208535
0.000194237
0.000171888
0.000138892
9.52311e-05
5.23637e-05
2.92864e-05
2.7428e-05
2.87097e-05
3.07753e-05
5.55215e-05
0.0001007
0.00014514
0.000177773
0.000199218
0.000212514
0.000220394
0.000224878
0.000227331
0.000228624
0.000229279
0.000229592
0.000229717
0.000229717
0.000229594
0.000229282
0.000228629
0.000227338
0.00022489
0.000220415
0.000212547
0.000199272
0.000177861
0.000145284
0.000100893
5.56006e-05
3.08038e-05
2.86987e-05
2.96705e-05
3.19477e-05
5.80269e-05
0.000104992
0.000149796
0.000181981
0.000202654
0.000215145
0.000222325
0.000226252
0.000228287
0.00022928
0.000229732
0.000229919
0.000229985
0.000229986
0.000229924
0.00022974
0.000229292
0.000228306
0.000226279
0.000222364
0.0002152
0.000202727
0.00018208
0.000149928
0.000105141
5.81029e-05
3.19776e-05
2.9661e-05
3.03155e-05
3.2748e-05
5.97435e-05
0.000107919
0.000152874
0.000184692
0.000204811
0.000216748
0.000223453
0.000227008
0.00022877
0.000229572
0.000229896
0.000230007
0.000230037
0.000230039
0.000230014
0.000229908
0.00022959
0.000228798
0.000227047
0.000223505
0.000216815
0.000204895
0.000184794
0.000152994
0.000108042
5.98152e-05
3.27781e-05
3.0307e-05
3.06394e-05
3.31544e-05
6.06165e-05
0.000109393
0.000154409
0.000186024
0.000205854
0.000217507
0.000223973
0.000227343
0.000228971
0.000229679
0.000229942
0.000230017
0.00023003
0.000230033
0.000230025
0.000229956
0.000229701
0.000229002
0.000227387
0.00022403
0.000217579
0.000205941
0.000186125
0.000154521
0.000109502
6.06839e-05
3.31835e-05
3.06313e-05
3.06397e-05
3.31543e-05
6.06176e-05
0.000109394
0.000154411
0.000186026
0.000205856
0.000217507
0.000223972
0.000227342
0.000228969
0.000229678
0.000229941
0.000230016
0.000230029
0.000230031
0.000230023
0.000229954
0.000229698
0.000229
0.000227385
0.000224029
0.000217578
0.000205941
0.000186125
0.000154521
0.000109501
6.06832e-05
3.31827e-05
3.06315e-05
3.03162e-05
3.27475e-05
5.97466e-05
0.000107921
0.00015288
0.000184698
0.000204815
0.000216748
0.000223451
0.000227005
0.000228766
0.000229568
0.000229892
0.000230003
0.000230033
0.000230034
0.000230008
0.000229902
0.000229584
0.000228791
0.000227041
0.0002235
0.000216812
0.000204894
0.000184793
0.000152993
0.000108037
5.98131e-05
3.27757e-05
3.03076e-05
2.96716e-05
3.19465e-05
5.80312e-05
0.000104996
0.000149805
0.000181989
0.000202658
0.000215145
0.000222322
0.000226246
0.000228281
0.000229274
0.000229726
0.000229914
0.000229979
0.00022998
0.000229916
0.000229731
0.000229283
0.000228296
0.000226271
0.000222358
0.000215196
0.000202726
0.000182079
0.000149925
0.000105133
5.80995e-05
3.19739e-05
2.96621e-05
2.8711e-05
3.07734e-05
5.55255e-05
0.000100705
0.000145149
0.00017778
0.000199221
0.000212512
0.000220389
0.000224871
0.000227324
0.000228618
0.000229274
0.000229587
0.000229712
0.000229712
0.000229587
0.000229274
0.000228619
0.000227328
0.000224881
0.000220408
0.000212544
0.000199271
0.000177859
0.000145277
0.000100878
5.55953e-05
3.07988e-05
2.87002e-05
2.74425e-05
2.92581e-05
5.22912e-05
9.5011e-05
0.000138758
0.000171828
0.000194213
0.000208525
0.000217307
0.000222522
0.000225541
0.000227252
0.0002282
0.000228698
0.000228911
0.000228911
0.000228696
0.000228197
0.000227246
0.000225534
0.000222517
0.000217307
0.000208533
0.000194236
0.000171883
0.000138878
9.52055e-05
5.23555e-05
2.92801e-05
2.74302e-05
2.58777e-05
2.74368e-05
4.8404e-05
8.78422e-05
0.00013031
0.000163727
0.000187182
0.000202668
0.000212502
0.000218592
0.000222312
0.000224563
0.000225902
0.000226653
0.00022699
0.00022699
0.000226652
0.000225898
0.000224554
0.000222298
0.000218575
0.000212484
0.000202652
0.000187174
0.00016375
0.000130407
8.80339e-05
4.84529e-05
2.74538e-05
2.58638e-05
2.40321e-05
2.53475e-05
4.39283e-05
7.90823e-05
0.000119058
0.000152969
0.000177498
0.000194151
0.000205059
0.000212092
0.000216617
0.000219526
0.000221362
0.000222443
0.000222946
0.000222947
0.000222446
0.000221363
0.00021952
0.000216601
0.000212067
0.000205026
0.000194109
0.000177449
0.000152946
0.000119148
7.92414e-05
4.3957e-05
2.53585e-05
2.4017e-05
2.19289e-05
2.30264e-05
3.8979e-05
6.89175e-05
0.00010568
0.000139196
0.00016427
0.000181752
0.000193543
0.000201475
0.00020687
0.000210546
0.000212985
0.000214475
0.000215184
0.000215189
0.000214486
0.000212995
0.000210547
0.000206857
0.000201445
0.000193495
0.000181678
0.000164156
0.000139056
0.000105621
6.89811e-05
3.8981e-05
2.30306e-05
2.19168e-05
1.96335e-05
2.05461e-05
3.38033e-05
5.79818e-05
9.00632e-05
0.000121361
0.000146048
0.000163621
0.000175843
0.000184519
0.000190806
0.000195334
0.000198459
0.000200416
0.000201361
0.000201371
0.000200439
0.000198486
0.000195354
0.000190806
0.000184487
0.000175774
0.0001635
0.000145843
0.000121046
8.98129e-05
5.79125e-05
3.37772e-05
2.05531e-05
1.96229e-05
1.71227e-05
1.82377e-05
2.83336e-05
4.65155e-05
7.22188e-05
9.86003e-05
0.000120971
0.000137418
0.000149353
0.000158545
0.000165667
0.000171031
0.000174815
0.000177218
0.000178392
0.00017841
0.000177266
0.000174877
0.000171093
0.000165715
0.000158539
0.000149274
0.000137244
0.000120625
9.81696e-05
7.18382e-05
4.63431e-05
2.82526e-05
1.82898e-05
1.71121e-05
1.44192e-05
1.60534e-05
2.25802e-05
3.53774e-05
5.34939e-05
7.24971e-05
8.87716e-05
0.000101855
0.000112573
0.000121842
0.000129323
0.000135131
0.00013923
0.000141862
0.000143165
0.0001432
0.000141957
0.000139361
0.000135278
0.000129502
0.00012197
0.000112607
0.000101713
8.8455e-05
7.21006e-05
5.31998e-05
3.51951e-05
2.25099e-05
1.61187e-05
1.44152e-05
1.15838e-05
1.36004e-05
1.7829e-05
2.54056e-05
3.53691e-05
4.59923e-05
5.56018e-05
6.41219e-05
7.17454e-05
7.86777e-05
8.45717e-05
8.92874e-05
9.27624e-05
9.50514e-05
9.62127e-05
9.62721e-05
9.5221e-05
9.30128e-05
8.95703e-05
8.48681e-05
7.8944e-05
7.19262e-05
6.41549e-05
5.55192e-05
4.58376e-05
3.51939e-05
2.53111e-05
1.78099e-05
1.36751e-05
1.15889e-05
8.71595e-06
1.04103e-05
1.32233e-05
1.66276e-05
2.17626e-05
2.71749e-05
3.22298e-05
3.66754e-05
4.07585e-05
4.44439e-05
4.76225e-05
5.02008e-05
5.20952e-05
5.33514e-05
5.39924e-05
5.40191e-05
5.34275e-05
5.22034e-05
5.02702e-05
4.76742e-05
4.44828e-05
4.07833e-05
3.6679e-05
3.21997e-05
2.71375e-05
2.17356e-05
1.66034e-05
1.32218e-05
1.0493e-05
8.72742e-06
5.14954e-06
1.64625e-06
7.5266e-06
1.1139e-05
1.47368e-05
1.77445e-05
2.02932e-05
2.26498e-05
2.4739e-05
2.65438e-05
2.80633e-05
2.92782e-05
3.01819e-05
3.07839e-05
3.10872e-05
3.10913e-05
3.07953e-05
3.01978e-05
2.92921e-05
2.80701e-05
2.65471e-05
2.47428e-05
2.26608e-05
2.03323e-05
1.77921e-05
1.47842e-05
1.11799e-05
7.55293e-06
1.66479e-06
5.16196e-06
3.5796e-06
6.11718e-06
8.71507e-06
1.10721e-05
1.34268e-05
1.56541e-05
1.77104e-05
1.94847e-05
2.10283e-05
2.23517e-05
2.34595e-05
2.43592e-05
2.50448e-05
2.55035e-05
2.57324e-05
2.57306e-05
2.54982e-05
2.5036e-05
2.43476e-05
2.34495e-05
2.23402e-05
2.10148e-05
1.94654e-05
1.76925e-05
1.56408e-05
1.34203e-05
1.10737e-05
8.72335e-06
6.12855e-06
3.58716e-06
3.35067e-06
5.70133e-06
8.22789e-06
1.05644e-05
1.29148e-05
1.51367e-05
1.71743e-05
1.89165e-05
2.04371e-05
2.17586e-05
2.28689e-05
2.37581e-05
2.44244e-05
2.48705e-05
2.50955e-05
2.50983e-05
2.4879e-05
2.44382e-05
2.37767e-05
2.28888e-05
2.17814e-05
2.04632e-05
1.89495e-05
1.7205e-05
1.51603e-05
1.29283e-05
1.05667e-05
8.22067e-06
5.68728e-06
3.34019e-06
4.85578e-06
2.46037e-06
1.06347e-05
1.58728e-05
2.09422e-05
2.54817e-05
2.93859e-05
3.24266e-05
3.4729e-05
3.64461e-05
3.77272e-05
3.86796e-05
3.93663e-05
3.98154e-05
4.00401e-05
4.00455e-05
3.98317e-05
3.93936e-05
3.87186e-05
3.77774e-05
3.6503e-05
3.47872e-05
3.24771e-05
2.93988e-05
2.5459e-05
2.08923e-05
1.58132e-05
1.05873e-05
2.40344e-06
4.83861e-06
8.26542e-06
1.28357e-05
1.72616e-05
2.10823e-05
2.40742e-05
2.71679e-05
3.02426e-05
3.3273e-05
3.61184e-05
3.85582e-05
4.05994e-05
4.22481e-05
4.35202e-05
4.43796e-05
4.48146e-05
4.4822e-05
4.44041e-05
4.35698e-05
4.23588e-05
4.07591e-05
3.87574e-05
3.63332e-05
3.34654e-05
3.0324e-05
2.72022e-05
2.40989e-05
2.11038e-05
1.72451e-05
1.26738e-05
8.24965e-06
1.10504e-05
1.80235e-05
2.32192e-05
2.49068e-05
2.87476e-05
3.46679e-05
4.15078e-05
4.78647e-05
5.32547e-05
5.75841e-05
6.12556e-05
6.42952e-05
6.66634e-05
6.82716e-05
6.90648e-05
6.90212e-05
6.81461e-05
6.64743e-05
6.40759e-05
6.10221e-05
5.73834e-05
5.31438e-05
4.79061e-05
4.14903e-05
3.45342e-05
2.88042e-05
2.49542e-05
2.31836e-05
1.79036e-05
1.10437e-05
1.3801e-05
2.20248e-05
2.63745e-05
2.95633e-05
3.81841e-05
5.08543e-05
6.27638e-05
7.23107e-05
8.00299e-05
8.63838e-05
9.15881e-05
9.58207e-05
9.93666e-05
0.000101843
0.000103077
0.000103019
0.000101683
9.91545e-05
9.5624e-05
9.12912e-05
8.61718e-05
8.00014e-05
7.2456e-05
6.28772e-05
5.07358e-05
3.79201e-05
2.95996e-05
2.63706e-05
2.19394e-05
1.38074e-05
1.6437e-05
2.55383e-05
2.86722e-05
3.60036e-05
5.12301e-05
6.96943e-05
8.75324e-05
0.000102069
0.00011364
0.000122543
0.000129389
0.000134636
0.000138589
0.000141245
0.000142554
0.000142496
0.000141088
0.000138376
0.000134416
0.000129191
0.000122475
0.000113758
0.000102359
8.79984e-05
6.97111e-05
5.121e-05
3.60275e-05
2.87089e-05
2.55006e-05
1.6454e-05
1.89118e-05
2.82919e-05
3.1216e-05
4.37643e-05
6.37537e-05
8.77412e-05
0.000111075
0.000129581
0.000143131
0.000153012
0.000160232
0.000165488
0.000169214
0.000171614
0.000172782
0.000172756
0.000171548
0.000169135
0.000165431
0.000160224
0.00015309
0.000143294
0.000129827
0.000111448
8.81619e-05
6.39626e-05
4.38259e-05
3.13739e-05
2.83181e-05
1.89295e-05
2.11924e-05
3.03994e-05
3.44926e-05
5.09456e-05
7.50159e-05
0.000104
0.000130508
0.000150551
0.000164915
0.000175057
0.000182174
0.000187124
0.00019047
0.000192547
0.000193539
0.000193531
0.000192529
0.000190458
0.000187138
0.000182228
0.000175158
0.000165057
0.000150742
0.000130741
0.000104212
7.50688e-05
5.08956e-05
3.46656e-05
3.04289e-05
2.12108e-05
2.32245e-05
3.20664e-05
3.78466e-05
5.71834e-05
8.48632e-05
0.000117972
0.0001456
0.000165969
0.000180335
0.000190249
0.000196995
0.000201512
0.000204444
0.000206202
0.000207026
0.000207025
0.000206205
0.000204459
0.000201548
0.000197058
0.000190338
0.000180445
0.000166095
0.000145719
0.000117989
8.47253e-05
5.70516e-05
3.79929e-05
3.20897e-05
2.32447e-05
2.50112e-05
3.34239e-05
4.11104e-05
6.31498e-05
9.47856e-05
0.000129679
0.000157255
0.000177234
0.000191112
0.000200506
0.000206732
0.000210767
0.000213293
0.000214758
0.000215428
0.00021543
0.000214766
0.000213312
0.000210802
0.000206783
0.00020057
0.000191184
0.000177303
0.000157296
0.000129638
9.45995e-05
6.29848e-05
4.12057e-05
3.34401e-05
2.50297e-05
2.65345e-05
3.45341e-05
4.40713e-05
6.84737e-05
0.000103416
0.000138846
0.000166056
0.000185373
0.000198566
0.000207324
0.000212987
0.000216548
0.000218701
0.000219909
0.000220448
0.00022045
0.000219916
0.000218715
0.000216571
0.000213018
0.000207358
0.000198597
0.00018539
0.000166037
0.000138752
0.000103211
6.83123e-05
4.41062e-05
3.45444e-05
2.6551e-05
2.77767e-05
3.54284e-05
4.65231e-05
7.28936e-05
0.000110344
0.000145844
0.000172523
0.000191136
0.000203633
0.00021177
0.00021691
0.000220048
0.000221884
0.000222879
0.000223312
0.000223313
0.000222882
0.000221889
0.000220056
0.000216917
0.000211774
0.000203626
0.000191107
0.000172458
0.000145719
0.000110154
7.27645e-05
4.65302e-05
3.5435e-05
2.77913e-05
2.87223e-05
3.61149e-05
4.84425e-05
7.62667e-05
0.000115506
0.000150913
0.000177071
0.000195062
0.000206962
0.000214577
0.000219284
0.000222085
0.000223673
0.000224507
0.00022486
0.000224859
0.000224505
0.00022367
0.000222079
0.000219272
0.000214555
0.000206925
0.000195001
0.000176978
0.000150781
0.00011535
7.61865e-05
4.8445e-05
3.6119e-05
2.87355e-05
2.93594e-05
3.65841e-05
4.97683e-05
7.84958e-05
0.000118908
0.00015421
0.000179973
0.000197508
0.000208977
0.000216217
0.000220621
0.000223187
0.000224607
0.000225332
0.000225631
0.00022563
0.000225327
0.000224597
0.000223171
0.000220596
0.000216179
0.000208921
0.000197429
0.000179869
0.000154082
0.000118779
7.84426e-05
4.97692e-05
3.65852e-05
2.93715e-05
2.96799e-05
3.68296e-05
5.04465e-05
7.96179e-05
0.000120597
0.000155834
0.000181388
0.000198683
0.000209927
0.000216974
0.00022122
0.000223667
0.000225001
0.000225672
0.000225945
0.000225943
0.000225665
0.000224989
0.000223647
0.000221189
0.000216929
0.000209863
0.000198598
0.000181281
0.000155712
0.000120483
7.95773e-05
5.04462e-05
3.68219e-05
2.96914e-05
2.96797e-05
3.68295e-05
5.04465e-05
7.96194e-05
0.000120597
0.000155834
0.000181389
0.000198684
0.000209928
0.000216975
0.000221221
0.000223667
0.000225001
0.000225671
0.000225944
0.000225942
0.000225666
0.00022499
0.000223649
0.000221192
0.000216932
0.000209867
0.000198602
0.000181284
0.000155714
0.000120484
7.95779e-05
5.04463e-05
3.68228e-05
2.96913e-05
2.93589e-05
3.65851e-05
4.97684e-05
7.84997e-05
0.000118909
0.000154209
0.000179975
0.000197511
0.000208981
0.000216221
0.000220623
0.000223188
0.000224606
0.000225331
0.00022563
0.000225629
0.000225328
0.000224601
0.000223177
0.000220604
0.00021619
0.000208932
0.00019744
0.000179878
0.000154089
0.000118783
7.84449e-05
4.97696e-05
3.65879e-05
2.93712e-05
2.87216e-05
3.61168e-05
4.84429e-05
7.62716e-05
0.000115507
0.000150914
0.000177076
0.00019507
0.000206971
0.000214585
0.00021929
0.000222087
0.000223673
0.000224504
0.000224856
0.000224857
0.000224506
0.000223675
0.000222088
0.000219286
0.000214572
0.000206944
0.000195021
0.000176996
0.000150795
0.00011536
7.61926e-05
4.84456e-05
3.61226e-05
2.87348e-05
2.77759e-05
3.54313e-05
4.65246e-05
7.28985e-05
0.000110345
0.00014585
0.000172536
0.000191152
0.00020365
0.000211784
0.000216919
0.000220052
0.000221883
0.000222875
0.000223307
0.00022331
0.000222883
0.000221896
0.000220069
0.000216936
0.000211798
0.000203653
0.000191136
0.000172486
0.000145744
0.000110175
7.27783e-05
4.65314e-05
3.54392e-05
2.77902e-05
2.65338e-05
3.45381e-05
4.40794e-05
6.84787e-05
0.000103422
0.000138864
0.000166083
0.000185402
0.000198592
0.000207344
0.000213001
0.000216554
0.0002187
0.000219903
0.000220441
0.000220445
0.000219916
0.000218723
0.000216587
0.000213042
0.000207388
0.000198632
0.000185429
0.000166077
0.00013879
0.000103247
6.83377e-05
4.41096e-05
3.45485e-05
2.65493e-05
2.50107e-05
3.3429e-05
4.11308e-05
6.31577e-05
9.48038e-05
0.000129718
0.000157304
0.00017728
0.000191151
0.000200534
0.00020675
0.000210774
0.000213291
0.000214749
0.000215418
0.000215423
0.000214765
0.00021332
0.00021082
0.000206811
0.000200607
0.000191228
0.000177355
0.000157354
0.000129697
9.46551e-05
6.30252e-05
4.12197e-05
3.34444e-05
2.50274e-05
2.32245e-05
3.20732e-05
3.78798e-05
5.71976e-05
8.49081e-05
0.000118045
0.000145678
0.000166036
0.000180387
0.000190286
0.000197016
0.000201519
0.00020444
0.00020619
0.000207012
0.000207015