/*--------------------------------*- C++ -*----------------------------------*\
| =========                 |                                                 |
| \\      /  F ield         | OpenFOAM: The Open Source CFD Toolbox           |
|  \\    /   O peration     | Version:  2312                                  |
|   \\  /    A nd           | Website:  www.openfoam.com                      |
|    \\/     M anipulation  |                                                 |
\*---------------------------------------------------------------------------*/
FoamFile
{
    version     2.0;
    format      ascii;
    arch        "LSB;label=32;scalar=64";
    class       volScalarField;
    location    "650";
    object      p;
}
// * * * * * * * * * * * * * * * * * * * * * * * * * * * * * * * * * * * * * //

dimensions      [1 -1 -2 0 0 0 0];

internalField   nonuniform List<scalar> 
27000
(
103887
104004
104112
104213
104306
104390
104467
104536
104596
104648
104691
104726
104752
104769
104778
104778
104769
104752
104726
104691
104648
104596
104536
104467
104390
104306
104213
104112
104004
103887
103689
103797
103897
103991
104077
104156
104227
104291
104347
104395
104435
104468
104492
104508
104516
104516
104508
104492
104468
104435
104395
104347
104291
104227
104156
104077
103991
103897
103797
103689
103475
103575
103668
103754
103834
103907
103973
104032
104084
104129
104166
104196
104218
104233
104241
104241
104233
104218
104196
104166
104129
104084
104032
103973
103907
103834
103754
103668
103575
103475
103248
103340
103425
103505
103578
103645
103706
103760
103808
103849
103883
103911
103932
103946
103952
103952
103946
103932
103911
103883
103849
103808
103760
103706
103645
103578
103505
103425
103340
103248
103009
103092
103170
103243
103310
103371
103427
103476
103520
103557
103589
103614
103633
103645
103652
103652
103645
103633
103614
103589
103557
103520
103476
103427
103371
103310
103243
103170
103092
103009
102758
102834
102904
102970
103030
103086
103136
103181
103220
103254
103283
103305
103322
103334
103340
103340
103334
103322
103305
103283
103254
103220
103181
103136
103086
103030
102970
102904
102834
102758
102497
102564
102627
102686
102740
102790
102835
102875
102910
102941
102966
102986
103002
103012
103017
103017
103012
103002
102986
102966
102941
102910
102875
102835
102790
102740
102686
102627
102564
102497
102226
102286
102341
102393
102441
102485
102525
102560
102591
102618
102640
102658
102672
102681
102685
102685
102681
102672
102658
102640
102618
102591
102560
102525
102485
102441
102393
102341
102286
102226
101947
101999
102047
102092
102133
102171
102206
102236
102263
102287
102306
102322
102333
102341
102345
102345
102341
102333
102322
102306
102287
102263
102236
102206
102171
102133
102092
102047
101999
101947
101661
101705
101745
101783
101818
101851
101880
101906
101928
101948
101964
101978
101987
101994
101997
101997
101994
101987
101978
101964
101948
101928
101906
101880
101851
101818
101783
101745
101705
101661
101368
101404
101437
101468
101497
101523
101547
101568
101587
101603
101617
101627
101635
101641
101644
101644
101641
101635
101627
101617
101603
101587
101568
101547
101523
101497
101468
101437
101404
101368
101071
101098
101124
101148
101171
101191
101210
101226
101241
101253
101264
101272
101278
101283
101285
101285
101283
101278
101272
101264
101253
101241
101226
101210
101191
101171
101148
101124
101098
101071
100769
100789
100807
100824
100840
100855
100868
100880
100890
100899
100907
100913
100917
100920
100922
100922
100920
100917
100913
100907
100899
100890
100880
100868
100855
100840
100824
100807
100789
100769
100464
100476
100487
100497
100507
100516
100524
100531
100537
100542
100547
100550
100553
100555
100556
100556
100555
100553
100550
100547
100542
100537
100531
100524
100516
100507
100497
100487
100476
100464
100158
100162
100165
100169
100172
100175
100178
100180
100182
100184
100185
100186
100187
100188
100188
100188
100188
100187
100186
100185
100184
100182
100180
100178
100175
100172
100169
100165
100162
100158
99850.7
99846.7
99843
99839.5
99836.3
99833.4
99830.8
99828.4
99826.3
99824.6
99823.1
99821.9
99821
99820.4
99820.1
99820.1
99820.4
99821
99821.9
99823.1
99824.6
99826.3
99828.4
99830.8
99833.4
99836.3
99839.5
99843
99846.7
99850.7
99544.2
99532.4
99521.2
99510.9
99501.3
99492.5
99484.6
99477.5
99471.3
99465.9
99461.5
99457.9
99455.2
99453.4
99452.5
99452.5
99453.4
99455.2
99457.9
99461.5
99465.9
99471.3
99477.5
99484.6
99492.5
99501.3
99510.9
99521.2
99532.4
99544.2
99239.6
99219.8
99201.2
99183.9
99168
99153.4
99140.2
99128.4
99118
99109.1
99101.6
99095.6
99091.1
99088.1
99086.6
99086.6
99088.1
99091.1
99095.6
99101.6
99109.1
99118
99128.4
99140.2
99153.4
99168
99183.9
99201.2
99219.8
99239.6
98937.8
98910
98884
98859.9
98837.5
98817.1
98798.6
98782.1
98767.6
98755.1
98744.6
98736.3
98730
98725.7
98723.6
98723.6
98725.7
98730
98736.3
98744.6
98755.1
98767.6
98782.1
98798.6
98817.1
98837.5
98859.9
98884
98910
98937.8
98640
98604.3
98570.9
98539.8
98511.1
98484.9
98461.1
98439.9
98421.2
98405.1
98391.7
98380.9
98372.8
98367.4
98364.7
98364.7
98367.4
98372.8
98380.9
98391.7
98405.1
98421.2
98439.9
98461.1
98484.9
98511.1
98539.8
98570.9
98604.3
98640
98347.4
98303.8
98262.9
98225
98189.9
98157.8
98128.7
98102.8
98079.9
98060.3
98043.9
98030.7
98020.8
98014.2
98010.9
98010.9
98014.2
98020.8
98030.7
98043.9
98060.3
98079.9
98102.8
98128.7
98157.8
98189.9
98225
98262.9
98303.8
98347.4
98061
98009.5
97961.2
97916.3
97874.9
97836.9
97802.6
97771.9
97744.9
97721.7
97702.3
97686.7
97675
97667.2
97663.3
97663.3
97667.2
97675
97686.7
97702.3
97721.7
97744.9
97771.9
97802.6
97836.9
97874.9
97916.3
97961.2
98009.5
98061
97782
97722.5
97666.8
97615
97567.2
97523.4
97483.8
97448.4
97417.3
97390.5
97368.1
97350.1
97336.6
97327.6
97323.1
97323.1
97327.6
97336.6
97350.1
97368.1
97390.5
97417.3
97448.4
97483.8
97523.4
97567.2
97615
97666.8
97722.5
97782
97511.4
97443.9
97380.8
97322.1
97267.9
97218.3
97173.4
97133.2
97097.9
97067.6
97042.2
97021.8
97006.5
96996.3
96991.2
96991.2
96996.3
97006.5
97021.8
97042.2
97067.6
97097.9
97133.2
97173.4
97218.3
97267.9
97322.1
97380.8
97443.9
97511.4
97250.1
97174.8
97104.2
97038.6
96978
96922.5
96872.3
96827.5
96788
96754.1
96725.7
96703
96685.9
96674.4
96668.7
96668.7
96674.4
96685.9
96703
96725.7
96754.1
96788
96827.5
96872.3
96922.5
96978
97038.6
97104.2
97174.8
97250.1
96999.3
96916
96838
96765.4
96698.5
96637.2
96581.7
96532.1
96488.5
96451
96419.6
96394.5
96375.6
96363
96356.6
96356.6
96363
96375.6
96394.5
96419.6
96451
96488.5
96532.1
96581.7
96637.2
96698.5
96765.4
96838
96916
96999.3
96759.9
96668.6
96583.2
96503.7
96430.3
96363.1
96302.4
96248
96200.3
96159.2
96124.9
96097.3
96076.6
96062.8
96055.9
96055.9
96062.8
96076.6
96097.3
96124.9
96159.2
96200.3
96248
96302.4
96363.1
96430.3
96503.7
96583.2
96668.6
96759.9
96532.9
96433.6
96340.6
96254.1
96174.3
96101.3
96035.3
95976.2
95924.3
95879.7
95842.3
95812.4
95789.9
95774.8
95767.3
95767.3
95774.8
95789.9
95812.4
95842.3
95879.7
95924.3
95976.2
96035.3
96101.3
96174.3
96254.1
96340.6
96433.6
96532.9
96319.4
96211.8
96111.2
96017.8
95931.5
95852.7
95781.3
95717.5
95661.4
95613.2
95572.9
95540.5
95516.2
95500
95491.8
95491.8
95500
95516.2
95540.5
95572.9
95613.2
95661.4
95717.5
95781.3
95852.7
95931.5
96017.8
96111.2
96211.8
96319.4
96121.8
96004.5
95896
95795.4
95702.7
95617.9
95541.2
95472.6
95412.4
95360.6
95317.3
95282.5
95256.4
95239
95230.2
95230.2
95239
95256.4
95282.5
95317.3
95360.6
95412.4
95472.6
95541.2
95617.9
95702.7
95795.4
95896
96004.5
96121.8
103886
104003
104112
104213
104305
104390
104467
104535
104596
104647
104691
104725
104752
104769
104778
104778
104769
104752
104725
104691
104647
104596
104535
104467
104390
104305
104213
104112
104003
103886
103689
103796
103897
103990
104076
104155
104227
104290
104347
104395
104435
104467
104492
104508
104516
104516
104508
104492
104467
104435
104395
104347
104290
104227
104155
104076
103990
103897
103796
103689
103475
103574
103667
103754
103834
103907
103973
104032
104084
104128
104166
104196
104218
104233
104241
104241
104233
104218
104196
104166
104128
104084
104032
103973
103907
103834
103754
103667
103574
103475
103248
103339
103425
103504
103578
103645
103706
103760
103808
103849
103883
103911
103931
103945
103952
103952
103945
103931
103911
103883
103849
103808
103760
103706
103645
103578
103504
103425
103339
103248
103009
103092
103170
103242
103309
103371
103426
103476
103519
103557
103588
103613
103632
103645
103651
103651
103645
103632
103613
103588
103557
103519
103476
103426
103371
103309
103242
103170
103092
103009
102758
102833
102904
102969
103030
103085
103136
103180
103220
103254
103282
103305
103322
103333
103339
103339
103333
103322
103305
103282
103254
103220
103180
103136
103085
103030
102969
102904
102833
102758
102497
102564
102627
102686
102740
102790
102835
102875
102910
102940
102966
102986
103001
103012
103017
103017
103012
103001
102986
102966
102940
102910
102875
102835
102790
102740
102686
102627
102564
102497
102226
102285
102341
102393
102441
102485
102524
102560
102591
102617
102640
102658
102671
102680
102685
102685
102680
102671
102658
102640
102617
102591
102560
102524
102485
102441
102393
102341
102285
102226
101947
101998
102047
102092
102133
102171
102205
102236
102263
102286
102306
102321
102333
102341
102345
102345
102341
102333
102321
102306
102286
102263
102236
102205
102171
102133
102092
102047
101998
101947
101661
101704
101745
101783
101818
101850
101879
101905
101928
101948
101964
101977
101987
101994
101997
101997
101994
101987
101977
101964
101948
101928
101905
101879
101850
101818
101783
101745
101704
101661
101368
101404
101437
101468
101497
101523
101547
101568
101587
101603
101616
101627
101635
101641
101643
101643
101641
101635
101627
101616
101603
101587
101568
101547
101523
101497
101468
101437
101404
101368
101070
101098
101124
101148
101170
101191
101209
101226
101240
101253
101263
101272
101278
101282
101284
101284
101282
101278
101272
101263
101253
101240
101226
101209
101191
101170
101148
101124
101098
101070
100768
100788
100807
100824
100840
100855
100868
100880
100890
100899
100906
100912
100917
100920
100921
100921
100920
100917
100912
100906
100899
100890
100880
100868
100855
100840
100824
100807
100788
100768
100464
100476
100487
100497
100507
100515
100523
100530
100537
100542
100546
100550
100553
100555
100555
100555
100555
100553
100550
100546
100542
100537
100530
100523
100515
100507
100497
100487
100476
100464
100157
100161
100165
100168
100172
100175
100177
100180
100182
100183
100185
100186
100187
100188
100188
100188
100188
100187
100186
100185
100183
100182
100180
100177
100175
100172
100168
100165
100161
100157
99850.3
99846.3
99842.6
99839.2
99836
99833.1
99830.4
99828.1
99826
99824.2
99822.7
99821.5
99820.6
99820
99819.7
99819.7
99820
99820.6
99821.5
99822.7
99824.2
99826
99828.1
99830.4
99833.1
99836
99839.2
99842.6
99846.3
99850.3
99543.9
99532
99520.9
99510.5
99500.9
99492.2
99484.3
99477.2
99470.9
99465.6
99461.1
99457.5
99454.8
99453
99452.1
99452.1
99453
99454.8
99457.5
99461.1
99465.6
99470.9
99477.2
99484.3
99492.2
99500.9
99510.5
99520.9
99532
99543.9
99239.2
99219.4
99200.8
99183.6
99167.6
99153
99139.8
99128
99117.6
99108.7
99101.3
99095.3
99090.8
99087.8
99086.3
99086.3
99087.8
99090.8
99095.3
99101.3
99108.7
99117.6
99128
99139.8
99153
99167.6
99183.6
99200.8
99219.4
99239.2
98937.4
98909.7
98883.7
98859.5
98837.2
98816.8
98798.3
98781.8
98767.2
98754.7
98744.3
98735.9
98729.6
98725.4
98723.3
98723.3
98725.4
98729.6
98735.9
98744.3
98754.7
98767.2
98781.8
98798.3
98816.8
98837.2
98859.5
98883.7
98909.7
98937.4
98639.6
98604
98570.6
98539.5
98510.8
98484.5
98460.8
98439.5
98420.8
98404.8
98391.3
98380.5
98372.4
98367
98364.3
98364.3
98367
98372.4
98380.5
98391.3
98404.8
98420.8
98439.5
98460.8
98484.5
98510.8
98539.5
98570.6
98604
98639.6
98347
98303.4
98262.6
98224.6
98189.5
98157.4
98128.4
98102.4
98079.6
98059.9
98043.5
98030.3
98020.4
98013.8
98010.5
98010.5
98013.8
98020.4
98030.3
98043.5
98059.9
98079.6
98102.4
98128.4
98157.4
98189.5
98224.6
98262.6
98303.4
98347
98060.7
98009.1
97960.9
97916
97874.5
97836.6
97802.2
97771.5
97744.6
97721.4
97702
97686.4
97674.7
97666.9
97663
97663
97666.9
97674.7
97686.4
97702
97721.4
97744.6
97771.5
97802.2
97836.6
97874.5
97916
97960.9
98009.1
98060.7
97781.6
97722.2
97666.5
97614.7
97566.8
97523
97483.4
97448
97416.9
97390.1
97367.7
97349.7
97336.2
97327.2
97322.7
97322.7
97327.2
97336.2
97349.7
97367.7
97390.1
97416.9
97448
97483.4
97523
97566.8
97614.7
97666.5
97722.2
97781.6
97511
97443.6
97380.5
97321.7
97267.5
97217.9
97173
97132.9
97097.6
97067.2
97041.8
97021.5
97006.2
96996
96990.8
96990.8
96996
97006.2
97021.5
97041.8
97067.2
97097.6
97132.9
97173
97217.9
97267.5
97321.7
97380.5
97443.6
97511
97249.8
97174.4
97103.9
97038.2
96977.6
96922.2
96872
96827.1
96787.7
96753.7
96725.4
96702.6
96685.5
96674.1
96668.4
96668.4
96674.1
96685.5
96702.6
96725.4
96753.7
96787.7
96827.1
96872
96922.2
96977.6
97038.2
97103.9
97174.4
97249.8
96999
96915.7
96837.7
96765.1
96698.1
96636.8
96581.3
96531.7
96488.1
96450.6
96419.3
96394.1
96375.2
96362.6
96356.3
96356.3
96362.6
96375.2
96394.1
96419.3
96450.6
96488.1
96531.7
96581.3
96636.8
96698.1
96765.1
96837.7
96915.7
96999
96759.6
96668.3
96582.8
96503.3
96429.9
96362.8
96302
96247.7
96199.9
96158.9
96124.5
96097
96076.2
96062.4
96055.5
96055.5
96062.4
96076.2
96097
96124.5
96158.9
96199.9
96247.7
96302
96362.8
96429.9
96503.3
96582.8
96668.3
96759.6
96532.6
96433.2
96340.2
96253.8
96174
96101
96034.9
95975.9
95924
95879.3
95842
95812
95789.5
95774.5
95766.9
95766.9
95774.5
95789.5
95812
95842
95879.3
95924
95975.9
96034.9
96101
96174
96253.8
96340.2
96433.2
96532.6
96319.1
96211.4
96110.8
96017.4
95931.2
95852.3
95780.9
95717.1
95661.1
95612.8
95572.5
95540.1
95515.8
95499.6
95491.5
95491.5
95499.6
95515.8
95540.1
95572.5
95612.8
95661.1
95717.1
95780.9
95852.3
95931.2
96017.4
96110.8
96211.4
96319.1
96121.4
96004.1
95895.6
95795
95702.3
95617.5
95540.8
95472.3
95412.1
95360.2
95316.9
95282.2
95256
95238.6
95229.9
95229.9
95238.6
95256
95282.2
95316.9
95360.2
95412.1
95472.3
95540.8
95617.5
95702.3
95795
95895.6
96004.1
96121.4
103886
104003
104112
104212
104305
104390
104467
104535
104595
104647
104691
104725
104751
104769
104778
104778
104769
104751
104725
104691
104647
104595
104535
104467
104390
104305
104212
104112
104003
103886
103688
103796
103897
103990
104076
104155
104227
104290
104346
104395
104435
104467
104492
104508
104516
104516
104508
104492
104467
104435
104395
104346
104290
104227
104155
104076
103990
103897
103796
103688
103475
103574
103667
103754
103833
103906
103973
104032
104084
104128
104166
104195
104218
104233
104241
104241
104233
104218
104195
104166
104128
104084
104032
103973
103906
103833
103754
103667
103574
103475
103248
103339
103425
103504
103578
103645
103705
103760
103808
103849
103883
103911
103931
103945
103952
103952
103945
103931
103911
103883
103849
103808
103760
103705
103645
103578
103504
103425
103339
103248
103008
103092
103170
103242
103309
103371
103426
103476
103519
103557
103588
103613
103632
103645
103651
103651
103645
103632
103613
103588
103557
103519
103476
103426
103371
103309
103242
103170
103092
103008
102758
102833
102904
102969
103030
103085
103136
103180
103220
103254
103282
103305
103322
103333
103339
103339
103333
103322
103305
103282
103254
103220
103180
103136
103085
103030
102969
102904
102833
102758
102496
102564
102627
102686
102740
102790
102834
102875
102910
102940
102966
102986
103001
103012
103017
103017
103012
103001
102986
102966
102940
102910
102875
102834
102790
102740
102686
102627
102564
102496
102226
102285
102341
102393
102441
102484
102524
102559
102591
102617
102640
102658
102671
102680
102685
102685
102680
102671
102658
102640
102617
102591
102559
102524
102484
102441
102393
102341
102285
102226
101947
101998
102047
102092
102133
102171
102205
102236
102263
102286
102306
102321
102333
102341
102345
102345
102341
102333
102321
102306
102286
102263
102236
102205
102171
102133
102092
102047
101998
101947
101660
101704
101745
101783
101818
101850
101879
101905
101928
101948
101964
101977
101987
101994
101997
101997
101994
101987
101977
101964
101948
101928
101905
101879
101850
101818
101783
101745
101704
101660
101368
101404
101437
101468
101497
101523
101547
101568
101587
101603
101616
101627
101635
101640
101643
101643
101640
101635
101627
101616
101603
101587
101568
101547
101523
101497
101468
101437
101404
101368
101070
101098
101124
101148
101170
101191
101209
101226
101240
101253
101263
101272
101278
101282
101284
101284
101282
101278
101272
101263
101253
101240
101226
101209
101191
101170
101148
101124
101098
101070
100768
100788
100807
100824
100840
100854
100868
100879
100890
100899
100906
100912
100917
100920
100921
100921
100920
100917
100912
100906
100899
100890
100879
100868
100854
100840
100824
100807
100788
100768
100464
100475
100487
100497
100507
100515
100523
100530
100537
100542
100546
100550
100553
100554
100555
100555
100554
100553
100550
100546
100542
100537
100530
100523
100515
100507
100497
100487
100475
100464
100157
100161
100165
100168
100172
100174
100177
100179
100181
100183
100185
100186
100187
100187
100188
100188
100187
100187
100186
100185
100183
100181
100179
100177
100174
100172
100168
100165
100161
100157
99850.2
99846.2
99842.5
99839.1
99835.9
99833
99830.3
99828
99825.9
99824.1
99822.6
99821.4
99820.5
99819.9
99819.6
99819.6
99819.9
99820.5
99821.4
99822.6
99824.1
99825.9
99828
99830.3
99833
99835.9
99839.1
99842.5
99846.2
99850.2
99543.8
99531.9
99520.8
99510.4
99500.8
99492.1
99484.2
99477.1
99470.8
99465.5
99461
99457.4
99454.7
99452.9
99452
99452
99452.9
99454.7
99457.4
99461
99465.5
99470.8
99477.1
99484.2
99492.1
99500.8
99510.4
99520.8
99531.9
99543.8
99239.1
99219.3
99200.7
99183.5
99167.5
99152.9
99139.7
99127.9
99117.5
99108.6
99101.2
99095.2
99090.7
99087.7
99086.2
99086.2
99087.7
99090.7
99095.2
99101.2
99108.6
99117.5
99127.9
99139.7
99152.9
99167.5
99183.5
99200.7
99219.3
99239.1
98937.3
98909.6
98883.6
98859.4
98837.1
98816.7
98798.2
98781.7
98767.1
98754.6
98744.2
98735.8
98729.5
98725.3
98723.2
98723.2
98725.3
98729.5
98735.8
98744.2
98754.6
98767.1
98781.7
98798.2
98816.7
98837.1
98859.4
98883.6
98909.6
98937.3
98639.5
98603.9
98570.5
98539.4
98510.7
98484.4
98460.6
98439.4
98420.7
98404.7
98391.2
98380.4
98372.3
98366.9
98364.2
98364.2
98366.9
98372.3
98380.4
98391.2
98404.7
98420.7
98439.4
98460.6
98484.4
98510.7
98539.4
98570.5
98603.9
98639.5
98346.9
98303.3
98262.5
98224.5
98189.4
98157.3
98128.3
98102.3
98079.5
98059.8
98043.4
98030.2
98020.3
98013.7
98010.4
98010.4
98013.7
98020.3
98030.2
98043.4
98059.8
98079.5
98102.3
98128.3
98157.3
98189.4
98224.5
98262.5
98303.3
98346.9
98060.6
98009
97960.8
97915.9
97874.4
97836.5
97802.1
97771.4
97744.5
97721.3
97701.8
97686.3
97674.6
97666.8
97662.9
97662.9
97666.8
97674.6
97686.3
97701.8
97721.3
97744.5
97771.4
97802.1
97836.5
97874.4
97915.9
97960.8
98009
98060.6
97781.5
97722.1
97666.4
97614.6
97566.7
97522.9
97483.3
97447.9
97416.8
97390
97367.6
97349.6
97336.1
97327.1
97322.6
97322.6
97327.1
97336.1
97349.6
97367.6
97390
97416.8
97447.9
97483.3
97522.9
97566.7
97614.6
97666.4
97722.1
97781.5
97510.9
97443.5
97380.4
97321.6
97267.4
97217.8
97172.9
97132.8
97097.5
97067.1
97041.7
97021.4
97006.1
96995.9
96990.7
96990.7
96995.9
97006.1
97021.4
97041.7
97067.1
97097.5
97132.8
97172.9
97217.8
97267.4
97321.6
97380.4
97443.5
97510.9
97249.7
97174.3
97103.8
97038.1
96977.5
96922.1
96871.9
96827
96787.6
96753.6
96725.3
96702.5
96685.4
96674
96668.3
96668.3
96674
96685.4
96702.5
96725.3
96753.6
96787.6
96827
96871.9
96922.1
96977.5
97038.1
97103.8
97174.3
97249.7
96998.9
96915.6
96837.5
96765
96698
96636.7
96581.2
96531.6
96488
96450.5
96419.2
96394
96375.1
96362.5
96356.2
96356.2
96362.5
96375.1
96394
96419.2
96450.5
96488
96531.6
96581.2
96636.7
96698
96765
96837.5
96915.6
96998.9
96759.5
96668.2
96582.7
96503.2
96429.8
96362.7
96301.9
96247.6
96199.8
96158.8
96124.4
96096.9
96076.1
96062.3
96055.4
96055.4
96062.3
96076.1
96096.9
96124.4
96158.8
96199.8
96247.6
96301.9
96362.7
96429.8
96503.2
96582.7
96668.2
96759.5
96532.5
96433.1
96340.1
96253.7
96173.9
96100.9
96034.8
95975.8
95923.9
95879.2
95841.9
95811.9
95789.4
95774.4
95766.8
95766.8
95774.4
95789.4
95811.9
95841.9
95879.2
95923.9
95975.8
96034.8
96100.9
96173.9
96253.7
96340.1
96433.1
96532.5
96319
96211.3
96110.7
96017.3
95931.1
95852.2
95780.8
95717
95661
95612.7
95572.4
95540
95515.7
95499.5
95491.4
95491.4
95499.5
95515.7
95540
95572.4
95612.7
95661
95717
95780.8
95852.2
95931.1
96017.3
96110.7
96211.3
96319
96121.3
96004
95895.5
95794.9
95702.2
95617.4
95540.7
95472.2
95412
95360.1
95316.8
95282.1
95255.9
95238.5
95229.8
95229.8
95238.5
95255.9
95282.1
95316.8
95360.1
95412
95472.2
95540.7
95617.4
95702.2
95794.9
95895.5
96004
96121.3
103886
104003
104112
104212
104305
104390
104466
104535
104595
104647
104690
104725
104751
104769
104777
104777
104769
104751
104725
104690
104647
104595
104535
104466
104390
104305
104212
104112
104003
103886
103688
103796
103896
103990
104076
104155
104226
104290
104346
104394
104435
104467
104491
104508
104516
104516
104508
104491
104467
104435
104394
104346
104290
104226
104155
104076
103990
103896
103796
103688
103475
103574
103667
103754
103833
103906
103972
104031
104083
104128
104165
104195
104218
104233
104240
104240
104233
104218
104195
104165
104128
104083
104031
103972
103906
103833
103754
103667
103574
103475
103248
103339
103424
103504
103577
103645
103705
103760
103807
103848
103883
103910
103931
103945
103952
103952
103945
103931
103910
103883
103848
103807
103760
103705
103645
103577
103504
103424
103339
103248
103008
103092
103170
103242
103309
103370
103426
103476
103519
103557
103588
103613
103632
103645
103651
103651
103645
103632
103613
103588
103557
103519
103476
103426
103370
103309
103242
103170
103092
103008
102758
102833
102903
102969
103030
103085
103135
103180
103220
103254
103282
103305
103322
103333
103339
103339
103333
103322
103305
103282
103254
103220
103180
103135
103085
103030
102969
102903
102833
102758
102496
102564
102627
102686
102740
102789
102834
102874
102910
102940
102965
102986
103001
103011
103016
103016
103011
103001
102986
102965
102940
102910
102874
102834
102789
102740
102686
102627
102564
102496
102226
102285
102341
102393
102440
102484
102524
102559
102590
102617
102640
102658
102671
102680
102685
102685
102680
102671
102658
102640
102617
102590
102559
102524
102484
102440
102393
102341
102285
102226
101947
101998
102046
102091
102133
102171
102205
102236
102263
102286
102305
102321
102333
102340
102344
102344
102340
102333
102321
102305
102286
102263
102236
102205
102171
102133
102091
102046
101998
101947
101660
101704
101745
101783
101818
101850
101879
101905
101928
101947
101964
101977
101987
101993
101997
101997
101993
101987
101977
101964
101947
101928
101905
101879
101850
101818
101783
101745
101704
101660
101368
101403
101437
101468
101497
101523
101547
101568
101586
101603
101616
101627
101635
101640
101643
101643
101640
101635
101627
101616
101603
101586
101568
101547
101523
101497
101468
101437
101403
101368
101070
101098
101124
101148
101170
101191
101209
101226
101240
101253
101263
101271
101278
101282
101284
101284
101282
101278
101271
101263
101253
101240
101226
101209
101191
101170
101148
101124
101098
101070
100768
100788
100806
100824
100840
100854
100867
100879
100890
100899
100906
100912
100917
100920
100921
100921
100920
100917
100912
100906
100899
100890
100879
100867
100854
100840
100824
100806
100788
100768
100463
100475
100486
100497
100506
100515
100523
100530
100536
100542
100546
100550
100552
100554
100555
100555
100554
100552
100550
100546
100542
100536
100530
100523
100515
100506
100497
100486
100475
100463
100157
100161
100165
100168
100171
100174
100177
100179
100181
100183
100185
100186
100187
100187
100188
100188
100187
100187
100186
100185
100183
100181
100179
100177
100174
100171
100168
100165
100161
100157
99850
99846
99842.3
99838.9
99835.7
99832.8
99830.1
99827.8
99825.7
99823.9
99822.4
99821.2
99820.3
99819.7
99819.4
99819.4
99819.7
99820.3
99821.2
99822.4
99823.9
99825.7
99827.8
99830.1
99832.8
99835.7
99838.9
99842.3
99846
99850
99543.6
99531.7
99520.6
99510.2
99500.6
99491.9
99484
99476.9
99470.7
99465.3
99460.8
99457.2
99454.5
99452.7
99451.8
99451.8
99452.7
99454.5
99457.2
99460.8
99465.3
99470.7
99476.9
99484
99491.9
99500.6
99510.2
99520.6
99531.7
99543.6
99238.9
99219.1
99200.5
99183.3
99167.3
99152.7
99139.5
99127.7
99117.4
99108.4
99101
99095
99090.5
99087.5
99086
99086
99087.5
99090.5
99095
99101
99108.4
99117.4
99127.7
99139.5
99152.7
99167.3
99183.3
99200.5
99219.1
99238.9
98937.1
98909.4
98883.4
98859.2
98836.9
98816.5
98798
98781.5
98766.9
98754.4
98744
98735.6
98729.3
98725.1
98723
98723
98725.1
98729.3
98735.6
98744
98754.4
98766.9
98781.5
98798
98816.5
98836.9
98859.2
98883.4
98909.4
98937.1
98639.4
98603.7
98570.3
98539.2
98510.5
98484.2
98460.5
98439.2
98420.5
98404.5
98391
98380.3
98372.2
98366.7
98364
98364
98366.7
98372.2
98380.3
98391
98404.5
98420.5
98439.2
98460.5
98484.2
98510.5
98539.2
98570.3
98603.7
98639.4
98346.7
98303.1
98262.3
98224.3
98189.2
98157.1
98128.1
98102.1
98079.3
98059.6
98043.2
98030
98020.1
98013.5
98010.2
98010.2
98013.5
98020.1
98030
98043.2
98059.6
98079.3
98102.1
98128.1
98157.1
98189.2
98224.3
98262.3
98303.1
98346.7
98060.4
98008.8
97960.6
97915.7
97874.2
97836.3
97801.9
97771.3
97744.3
97721.1
97701.7
97686.1
97674.4
97666.6
97662.7
97662.7
97666.6
97674.4
97686.1
97701.7
97721.1
97744.3
97771.3
97801.9
97836.3
97874.2
97915.7
97960.6
98008.8
98060.4
97781.3
97721.9
97666.2
97614.4
97566.5
97522.8
97483.1
97447.7
97416.6
97389.8
97367.4
97349.4
97335.9
97326.9
97322.4
97322.4
97326.9
97335.9
97349.4
97367.4
97389.8
97416.6
97447.7
97483.1
97522.8
97566.5
97614.4
97666.2
97721.9
97781.3
97510.7
97443.3
97380.2
97321.4
97267.2
97217.6
97172.7
97132.6
97097.3
97066.9
97041.6
97021.2
97005.9
96995.7
96990.5
96990.5
96995.7
97005.9
97021.2
97041.6
97066.9
97097.3
97132.6
97172.7
97217.6
97267.2
97321.4
97380.2
97443.3
97510.7
97249.5
97174.1
97103.6
97037.9
96977.3
96921.9
96871.7
96826.8
96787.4
96753.5
96725.1
96702.3
96685.2
96673.8
96668.1
96668.1
96673.8
96685.2
96702.3
96725.1
96753.5
96787.4
96826.8
96871.7
96921.9
96977.3
97037.9
97103.6
97174.1
97249.5
96998.7
96915.4
96837.4
96764.8
96697.8
96636.5
96581
96531.4
96487.9
96450.3
96419
96393.8
96374.9
96362.3
96356
96356
96362.3
96374.9
96393.8
96419
96450.3
96487.9
96531.4
96581
96636.5
96697.8
96764.8
96837.4
96915.4
96998.7
96759.3
96668
96582.5
96503
96429.6
96362.5
96301.7
96247.4
96199.6
96158.6
96124.2
96096.7
96076
96062.1
96055.2
96055.2
96062.1
96076
96096.7
96124.2
96158.6
96199.6
96247.4
96301.7
96362.5
96429.6
96503
96582.5
96668
96759.3
96532.3
96432.9
96339.9
96253.5
96173.7
96100.7
96034.6
95975.6
95923.7
95879
95841.7
95811.7
95789.2
95774.2
95766.7
95766.7
95774.2
95789.2
95811.7
95841.7
95879
95923.7
95975.6
96034.6
96100.7
96173.7
96253.5
96339.9
96432.9
96532.3
96318.8
96211.1
96110.6
96017.1
95930.9
95852
95780.6
95716.8
95660.8
95612.5
95572.2
95539.8
95515.5
95499.3
95491.2
95491.2
95499.3
95515.5
95539.8
95572.2
95612.5
95660.8
95716.8
95780.6
95852
95930.9
96017.1
96110.6
96211.1
96318.8
96121.1
96003.8
95895.3
95794.7
95702
95617.2
95540.5
95472
95411.8
95359.9
95316.6
95281.9
95255.7
95238.3
95229.6
95229.6
95238.3
95255.7
95281.9
95316.6
95359.9
95411.8
95472
95540.5
95617.2
95702
95794.7
95895.3
96003.8
96121.1
103886
104003
104112
104212
104305
104390
104466
104535
104595
104647
104690
104725
104751
104769
104777
104777
104769
104751
104725
104690
104647
104595
104535
104466
104390
104305
104212
104112
104003
103886
103688
103796
103896
103990
104076
104155
104226
104290
104346
104394
104435
104467
104491
104508
104516
104516
104508
104491
104467
104435
104394
104346
104290
104226
104155
104076
103990
103896
103796
103688
103475
103574
103667
103753
103833
103906
103972
104031
104083
104128
104165
104195
104218
104233
104240
104240
104233
104218
104195
104165
104128
104083
104031
103972
103906
103833
103753
103667
103574
103475
103248
103339
103424
103504
103577
103644
103705
103759
103807
103848
103883
103910
103931
103945
103952
103952
103945
103931
103910
103883
103848
103807
103759
103705
103644
103577
103504
103424
103339
103248
103008
103091
103169
103242
103309
103370
103426
103475
103519
103557
103588
103613
103632
103645
103651
103651
103645
103632
103613
103588
103557
103519
103475
103426
103370
103309
103242
103169
103091
103008
102757
102833
102903
102969
103030
103085
103135
103180
103219
103253
103282
103305
103322
103333
103339
103339
103333
103322
103305
103282
103253
103219
103180
103135
103085
103030
102969
102903
102833
102757
102496
102564
102627
102685
102740
102789
102834
102874
102910
102940
102965
102986
103001
103011
103016
103016
103011
103001
102986
102965
102940
102910
102874
102834
102789
102740
102685
102627
102564
102496
102226
102285
102341
102392
102440
102484
102524
102559
102590
102617
102639
102657
102671
102680
102684
102684
102680
102671
102657
102639
102617
102590
102559
102524
102484
102440
102392
102341
102285
102226
101946
101998
102046
102091
102133
102171
102205
102236
102263
102286
102305
102321
102332
102340
102344
102344
102340
102332
102321
102305
102286
102263
102236
102205
102171
102133
102091
102046
101998
101946
101660
101704
101745
101783
101818
101850
101879
101905
101928
101947
101964
101977
101987
101993
101997
101997
101993
101987
101977
101964
101947
101928
101905
101879
101850
101818
101783
101745
101704
101660
101367
101403
101437
101468
101496
101523
101546
101568
101586
101602
101616
101627
101635
101640
101643
101643
101640
101635
101627
101616
101602
101586
101568
101546
101523
101496
101468
101437
101403
101367
101070
101097
101123
101148
101170
101190
101209
101225
101240
101252
101263
101271
101278
101282
101284
101284
101282
101278
101271
101263
101252
101240
101225