/*--------------------------------*- C++ -*----------------------------------*\
| =========                 |                                                 |
| \\      /  F ield         | OpenFOAM: The Open Source CFD Toolbox           |
|  \\    /   O peration     | Version:  2312                                  |
|   \\  /    A nd           | Website:  www.openfoam.com                      |
|    \\/     M anipulation  |                                                 |
\*---------------------------------------------------------------------------*/
FoamFile
{
    version     2.0;
    format      ascii;
    arch        "LSB;label=32;scalar=64";
    class       surfaceScalarField;
    location    "650";
    object      phi;
}
// * * * * * * * * * * * * * * * * * * * * * * * * * * * * * * * * * * * * * //

dimensions      [1 0 -1 0 0 0 0];

oriented        oriented;

internalField   nonuniform List<scalar> 
78300
(
-0.000129423
0.000334787
0.00755402
0.00256588
0.00137333
0.00976942
0.002412
0.00478575
0.0150055
0.00261499
0.00531499
0.019607
0.00281002
0.00589784
0.0241773
0.00295994
0.00639448
0.0285
0.00303011
0.00684315
0.0325074
0.00299192
0.00722711
0.0361859
0.00282356
0.00754168
0.0395112
0.00253014
0.00779036
0.0424333
0.00213064
0.00798052
0.0449138
0.00164793
0.00812111
0.0469256
0.00110537
0.00821943
0.0484492
0.000525592
0.00828059
0.0494715
-6.99792e-05
0.00830845
0.0499841
-0.000660683
0.00830518
0.0499825
-0.00122559
0.00827054
0.0494667
-0.00174284
0.00820229
0.048441
-0.002189
0.00809631
0.0469138
-0.00254061
0.00794785
0.0448986
-0.00277509
0.00774923
0.0424155
-0.00287647
0.00749365
0.0394923
-0.00284613
0.00717763
0.0361668
-0.00271828
0.0068035
0.0324893
-0.00253726
0.00637817
0.0284852
-0.00234993
0.00591476
0.0241681
-0.00219917
0.0053694
0.0196048
-0.00244864
0.00487757
0.0150093
0.000158289
0.00145393
0.0097772
0.000353811
0.00756387
0.00335991
0.00426593
0.00973066
0.00553405
0.00414967
0.0179392
0.006411
0.00744832
0.0249485
0.00647969
0.00829005
0.0307419
0.00637034
0.00879253
0.0359676
0.00615845
0.00916832
0.0408001
0.00586295
0.00948132
0.0452447
0.0054656
0.00975413
0.0492754
0.00494837
0.00998407
0.0528686
0.00430867
0.0101665
0.0559981
0.00355957
0.0103024
0.058638
0.0027228
0.010398
0.0607686
0.00182291
0.0104602
0.0623762
0.000883616
0.0104953
0.0634519
-7.2062e-05
0.010508
0.06399
-0.00102136
0.0105008
0.0639876
-0.00194184
0.0104739
0.0634445
-0.00281099
0.0104248
0.0623636
-0.00360628
0.0103496
0.0607507
-0.00430564
0.0102427
0.0586153
-0.00489254
0.0100988
0.0559718
-0.00536145
0.00991558
0.0528407
-0.00572385
0.00969633
0.0492487
-0.0060068
0.00945037
0.0452234
-0.00623693
0.00918053
0.0407899
-0.00639909
0.00885747
0.0359724
-0.00640853
0.00840251
0.030762
-0.00559907
0.00757787
0.0249783
-0.0034586
0.00423088
0.0179722
0.00417418
0.00974273
0.00689549
0.00372155
0.0199155
0.00960796
0.00603471
0.0273293
0.0103647
0.00885346
0.0351653
0.00998424
0.00968024
0.0414279
0.00925832
0.010022
0.046726
0.00846502
0.0102112
0.0514267
0.0076643
0.0103539
0.0556808
0.00684976
0.0104865
0.0595182
0.00600027
0.0106101
0.0629291
0.00509996
0.0107156
0.0658944
0.00414432
0.0107965
0.0683941
0.00313867
0.0108522
0.0704119
0.00209407
0.0108855
0.0719352
0.00102465
0.0109009
0.0729547
-5.41715e-05
0.0109023
0.0734642
-0.00112674
0.0108922
0.0734608
-0.00217789
0.0108711
0.0729447
-0.00319374
0.0108375
0.0719191
-0.00416305
0.0107889
0.0703905
-0.00507916
0.0107228
0.0683686
-0.0059434
0.0106392
0.065867
-0.0067676
0.010542
0.0629034
-0.0075752
0.0104411
0.0594989
-0.00839231
0.0103462
0.0556739
-0.00922603
0.0102527
0.0514378
-0.0100095
0.0101136
0.0467569
-0.0104451
0.00980308
0.0414726
-0.00970696
0.00895982
0.0352071
-0.00695303
0.00604633
0.0273574
0.00356341
0.0199244
0.00701905
0.00416446
0.0279103
0.0102055
0.00681187
0.0368666
0.0111215
0.00930932
0.044666
0.0108673
0.0100483
0.0508522
0.0101128
0.0103363
0.0560278
0.00918988
0.0104507
0.0605596
0.00822319
0.0105062
0.0646223
0.00724788
0.0105516
0.0682709
0.0062653
0.0105988
0.0715084
0.00526711
0.0106438
0.0743215
0.00424617
0.01068
0.0766939
0.00320051
0.0107037
0.0786104
0.0021334
0.0107147
0.0800583
0.00105206
0.0107153
0.0810278
-3.41217e-05
0.0107084
0.0815125
-0.001115
0.0106963
0.0815092
-0.00218105
0.0106798
0.0810182
-0.00322503
0.0106587
0.0800432
-0.0042433
0.0106323
0.0785912
-0.00523753
0.0106008
0.0766727
-0.00621565
0.0105673
0.0743016
-0.00719097
0.0105376
0.0714942
-0.00817624
0.0105192
0.0682679
-0.00917112
0.0105134
0.0646356
-0.0101366
0.0105019
0.0605923
-0.0109365
0.0104239
0.0560772
-0.0112198
0.0101471
0.0509054
-0.0102949
0.00936954
0.0447031
-0.00706606
0.0067658
0.0368819
0.00395878
0.0279109
0.00789356
0.00442066
0.0360689
0.0108593
0.00728283
0.0460454
0.0115215
0.00938214
0.0537694
0.0112087
0.00997327
0.0596456
0.0104593
0.0102057
0.0645954
0.00952002
0.0102822
0.06896
0.00850387
0.0102958
0.0728715
0.00746158
0.0102917
0.0763746
0.00641207
0.0102871
0.0794762
0.00535881
0.0102848
0.082168
0.00429928
0.010282
0.0844372
0.00323094
0.0102759
0.0862702
0.00215364
0.0102655
0.0876554
0.00107011
0.0102519
0.0885833
-1.48377e-05
0.0102373
0.0890474
-0.00109575
0.0102237
0.0890449
-0.00216787
0.0102125
0.0885758
-0.0032286
0.0102043
0.087644
-0.00427876
0.0101999
0.0862566
-0.00532293
0.0102009
0.0844237
-0.00636837
0.0102103
0.0821583
-0.00742158
0.0102316
0.0794743
-0.0084806
0.010266
0.0763845
-0.00952453
0.0103063
0.072896
-0.0104962
0.0103272
0.0689986
-0.011272
0.0102726
0.0646424
-0.0115912
0.010036
0.059688
-0.0109051
0.00939814
0.0537898
-0.00790179
0.00720141
0.0460432
0.00421612
0.0360595
0.00850933
0.00457031
0.0440297
0.0112868
0.00742685
0.0548463
0.0117438
0.00917703
0.0623626
0.0113544
0.00963775
0.0679269
0.0106026
0.00981272
0.0726492
0.00967298
0.00985918
0.07685
0.00865405
0.00984703
0.0806263
0.00759337
0.00981265
0.0840069
0.00651647
0.00977282
0.0869958
0.00543489
0.00973412
0.0895864
0.0043518
0.00969822
0.0917681
0.00326698
0.00966484
0.0935296
0.00218002
0.00963395
0.0948603
0.00109155
0.0096067
0.0957518
3.44096e-06
0.00958485
0.096198
-0.001082
0.00957041
0.0961962
-0.00216318
0.00956511
0.0957466
-0.00324019
0.00957034
0.0948528
-0.00431528
0.00958733
0.0935214
-0.00539234
0.00961756
0.0917616
-0.00647466
0.00966218
0.0895845
-0.00756082
0.00972089
0.0870015
-0.0086387
0.00978884
0.0840223
-0.00967911
0.00985375
0.0806515
-0.0106282
0.00989109
0.0768826
-0.0113895
0.00985588
0.0726824
-0.0117708
0.00966938
0.0679499
-0.0112878
0.00916537
0.0623644
-0.00848775
0.00733954
0.0548295
0.00440306
0.044014
0.00898369
0.00458874
0.0516681
0.0115517
0.00731012
0.0631258
0.0118569
0.00874665
0.0703852
0.0114139
0.00909984
0.0756735
0.0106626
0.00922302
0.080191
0.00975065
0.00924309
0.0842369
0.00874645
0.00921218
0.0878862
0.00769063
0.00915774
0.0911557
0.00660865
0.0090941
0.0940449
0.00551525
0.00902923
0.0965468
0.00441774
0.0089676
0.0986522
0.00331886
0.00891168
0.100351
0.00221932
0.00886317
0.101634
0.00111966
0.00882387
0.102493
2.05621e-05
0.00879588
0.102923
-0.00107727
0.00878135
0.102922
-0.00217359
0.00878219
0.10249
-0.00326913
0.00879996
0.101629
-0.00436555
0.00883577
0.100347
-0.00546412
0.00888982
0.0986503
-0.00656366
0.00896095
0.0965493
-0.00765694
0.00904506
0.0940533
-0.00872743
0.0091337
0.0911706
-0.00974598
0.00921309
0.0879064
-0.0106671
0.00926241
0.0842587
-0.0114177
0.00924814
0.0802083
-0.0118476
0.00911329
0.0756786
-0.0115226
0.00872737
0.070373
-0.0089489
0.00724114
0.0631018
0.00447619
0.0516482
0.0093456
0.00445679
0.0588437
0.0117275
0.00696032
0.0707741
0.0119139
0.0081239
0.0777749
0.0114336
0.00838736
0.0828219
0.0106857
0.00846665
0.0871579
0.00979306
0.00846411
0.0910608
0.00880984
0.00841923
0.094591
0.0077693
0.0083518
0.0977575
0.00669411
0.00827319
0.100556
0.00559923
0.00819134
0.102979
0.00449377
0.00811218
0.105017
0.00338272
0.00804011
0.106661
0.00226861
0.00797851
0.107901
0.00115282
0.00793024
0.108732
3.6308e-05
0.00789796
0.109149
-0.00108009
0.00788401
0.109148
-0.00219596
0.00789044
0.108731
-0.00331117
0.00791858
0.107899
-0.00442538
0.00796879
0.106659
-0.00553699
0.00803991
0.105018
-0.00664121
0.00812847
0.102983
-0.00772803
0.00822793
0.100564
-0.00878043
0.00832832
0.0977688
-0.00977289
0.0084165
0.0946039
-0.0106691
0.00847608
0.0910717
-0.0114129
0.00848356
0.087162
-0.0118823
0.00839716
0.0828146
-0.0116854
0.00811405
0.0777551
-0.00931052
0.00692403
0.0707484
0.00439956
0.0588235
0.00962979
0.00416703
0.0654121
0.0118511
0.00640151
0.0776963
0.0119438
0.0073301
0.0844568
0.0114352
0.00751959
0.0892948
0.0106909
0.00756306
0.0934711
0.00981606
0.00754233
0.0972447
0.00885467
0.00748769
0.100665
0.00783341
0.00741292
0.103737
0.00677093
0.0073267
0.106454
0.00568064
0.00723615
0.108807
0.0045719
0.00714761
0.110785
0.00345093
0.00706655
0.112381
0.00232186
0.00699755
0.113585
0.0011876
0.00694432
0.114391
5.04584e-05
0.00691005
0.114795
-0.00108761
0.00689737
0.114795
-0.00222465
0.00690817
0.11439
-0.00335868
0.00694344
0.113584
-0.00448703
0.00700272
0.112381
-0.00560547
0.00708357
0.110787
-0.00670711
0.00718107
0.10881
-0.00778131
0.00728756
0.10646
-0.00881291
0.00739301
0.103744
-0.00978134
0.00748604
0.100671
-0.0106585
0.00755434
0.097247
-0.0114001
0.00758191
0.0934665
-0.0119031
0.0075377
0.0892808
-0.0118086
0.00734052
0.0844347
-0.00960022
0.00640173
0.0776727
0.00415694
0.0653946
0.00984889
0.00372977
0.0712539
0.0119374
0.00565547
0.0838048
0.0119587
0.00638195
0.0903523
0.0114287
0.00651206
0.0950134
0.0106876
0.00652797
0.0990519
0.00982803
0.00649431
0.102711
0.00888687
0.00643412
0.106033
0.00788511
0.00635708
0.109021
0.00683732
0.00626965
0.111665
0.00575456
0.00617779
0.113956
0.00464541
0.00608758
0.115883
0.0035166
0.00600472
0.117437
0.00237357
0.00593426
0.118609
0.00122084
0.00588046
0.119395
6.25205e-05
0.00584677
0.119789
-0.00109741
0.00583586
0.119789
-0.00225496
0.00584949
0.119395
-0.00340586
0.00588824
0.118609
-0.00454509
0.00595097
0.117437
-0.00566651
0.00603453
0.115884
-0.00676227
0.00613341
0.113958
-0.00782243
0.00623989
0.111668
-0.00883456
0.00634489
0.109023
-0.00978305
0.00643907
0.106034
-0.0106465
0.00651343
0.102708
-0.0113885
0.00655687
0.0990427
-0.0119184
0.00654616
0.0949974
-0.0119012
0.00641719
0.0903315
-0.0098272
0.00568967
0.0837853
0.00375537
0.0712399
0.0100136
0.00316291
0.076272
0.0119953
0.00474706
0.0890212
0.011964
0.00529724
0.0953876
0.011419
0.00538068
0.099903
0.0106814
0.0053768
0.103826
0.00983496
0.00533599
0.107387
0.00891131
0.00527488
0.110625
0.00792705
0.00520051
0.113539
0.00689324
0.00511755
0.116121
0.00581848
0.00503092
0.118359
0.00471022
0.00494589
0.120242
0.00357521
0.00486782
0.121761
0.00241978
0.00480159
0.122907
0.00125005
0.00475143
0.123675
7.20635e-05
0.00472074
0.12406
-0.00110809
0.00471206
0.12406
-0.00228412
0.00472692
0.123675
-0.00344946
0.00476553
0.122907
-0.00459717
0.00482652
0.121761
-0.00571975
0.00490653
0.120243
-0.00680911
0.00500023
0.11836
-0.00785652
0.00510071
0.116122
-0.00885234
0.00520025
0.113539
-0.009785
0.00529146
0.110622
-0.0106379
0.00536768
0.107381
-0.01138
0.00542094
0.103815
-0.0119292
0.00543423
0.0998877
-0.0119676
0.00535716
0.09537
-0.00999927
0.00480948
0.0890063
0.00321373
0.0762612
0.0101337
0.00248931
0.0803846
0.0120326
0.00370434
0.0932779
0.0119641
0.00409714
0.0994977
0.0114097
0.00414424
0.103897
0.0106759
0.00412782
0.107728
0.00984051
0.00408504
0.111209
0.00893126
0.00402768
0.114377
0.00796149
0.00396058
0.117232
0.0069394
0.00388724
0.119762
0.00587156
0.00381143
0.121956
0.00476427
0.00373747
0.123804
0.00362412
0.00366982
0.125294
0.00245811
0.00361273
0.12642
0.00127365
0.0035699
0.127174
7.85615e-05
0.00354433
0.127551
-0.00111905
0.00353821
0.127551
-0.0023108
0.00355279
0.127173
-0.0034882
0.00358816
0.12642
-0.00464269
0.00364292
0.125294
-0.00576591
0.00371411
0.123804
-0.00684988
0.00379718
0.121956
-0.00788706
0.00388645
0.119761
-0.00887003
0.00397582
0.117229
-0.00979022
0.00405961
0.114373
-0.0106345
0.00413279
0.111202
-0.0113754
0.0041896
0.107717
-0.0119364
0.00421767
0.103884
-0.0120129
0.00417906
0.0994836
-0.0101251
0.00378866
0.0932671
0.00255704
0.0803763
0.0102173
0.00173418
0.0835262
0.0120557
0.00255839
0.0965196
0.0119624
0.00280663
0.102628
0.0114031
0.00282513
0.106942
0.0106732
0.00280199
0.110702
0.00984665
0.00276179
0.114123
0.0089485
0.00271221
0.117239
0.00798964
0.00265648
0.120047
0.00697628
0.00259705
0.122538
0.00591342
0.00253667
0.124699
0.0048065
0.00247847
0.126519
0.0036619
0.00242576
0.127988
0.00248711
0.00238171
0.129098
0.0012906
0.00234913
0.129841
8.15921e-05
0.00233032
0.130213
-0.00113016
0.00232699
0.130213
-0.00233458
0.00234008
0.129841
-0.00352164
0.00236965
0.129097
-0.00468163
0.00241465
0.127988
-0.00580564
0.00247285
0.126519
-0.0068858
0.00254088
0.124698
-0.00791549
0.00261462
0.122536
-0.00888889
0.00268962
0.120044
-0.00979947
0.00276172
0.117234
-0.0106364
0.00282718
0.114116
-0.0113748
0.00288185
0.110693
-0.0119416
0.00291717
0.106931
-0.0120425
0.00290718
0.102617
-0.0102127
0.00265915
0.0965118
0.00181294
0.0835197
0.0102705
0.000923506
0.0856478
0.0120697
0.00134205
0.0987044
0.0119619
0.00145372
0.104739
0.0114005
0.00144884
0.108995
0.0106742
0.00142307
0.112708
0.00985398
0.00138887
0.116089
0.00896333
0.00135022
0.119169
0.00801159
0.00130901
0.121946
0.00700364
0.00126678
0.12441
0.00594351
0.00122522
0.126549
0.00483606
0.00118619
0.128351
0.00368759
0.00115162
0.129805
0.00250592
0.00112335
0.130904
0.00130025
0.00110306
0.13164
8.08206e-05
0.00109215
0.132009
-0.00114143
0.0010917
0.132009
-0.00235526
0.00110238
0.131639
-0.00354956
0.00112431
0.130903
-0.00471388
0.00115699
0.129805
-0.00583888
0.00119917
0.12835
-0.00691684
0.00124894
0.126547
-0.0079417
0.00130384
0.124408
-0.00890858
0.00136113
0.121942
-0.00981222
0.00141806
0.119163
-0.0106432
0.00147206
0.116082
-0.0113782
0.00152026
0.1127
-0.0119468
0.0015576
0.108985
-0.0120612
0.00156978
0.10473
-0.0102685
0.00145528
0.0986984
0.00100969
0.0856424
0.0102973
8.38252e-05
0.0867167
0.012078
8.92036e-05
0.099804
0.0119641
6.83506e-05
0.105801
0.0114028
4.29336e-05
0.110028
0.0106788
1.68765e-05
0.113718
0.00986213
-9.29115e-06
0.117079
0.00897519
-3.50537e-05
0.12014
0.00802664
-5.97674e-05
0.122902
0.00702072
-8.27752e-05
0.125353
0.00596102
-0.000103481
0.12748
0.00485217
-0.00012137
0.129273
0.00370045
-0.000136001
0.13072
0.00251391
-0.000146966
0.131813
0.0013022
-0.000153878
0.132545
7.61008e-05
-0.000156328
0.132912
-0.00115279
-0.00015391
0.132912
-0.00237258
-0.000146251
0.132545
-0.00357159
-0.000133074
0.131812
-0.00473892
-0.000114254
0.130719
-0.00586505
-8.98944e-05
0.129271
-0.00694224
-6.03766e-05
0.127478
-0.00796468
-2.63885e-05
0.12535
-0.00892795
1.10411e-05
0.122898
-0.00982736
5.06073e-05
0.120135
-0.0106542
9.07896e-05
0.117072
-0.011386
0.000130007
0.11371
-0.0119534
0.000166535
0.110019
-0.0120725
0.000197596
0.105793
-0.0102965
0.000212448
0.0997987
0.000175816
0.0867117
0.0102992
-0.000757853
0.0867168
0.012082
-0.00116566
0.0998039
0.0119698
-0.00131855
0.105801
0.0114098
-0.00136399
0.110028
0.0106868
-0.00138979
0.113718
0.00987041
-0.00140732
0.117078
0.00898326
-0.00141958
0.12014
0.00803394
-0.00142718
0.122901
0.0070267
-0.00143036
0.125352
0.00596521
-0.00142967
0.127479
0.00485416
-0.00142595
0.129272
0.00369995
-0.00142027
0.130719
0.00251075
-0.00141369
0.131812
0.00129627
-0.00140711
0.132544
6.74533e-05
-0.00140111
0.132911
-0.00116402
-0.00139596
0.132911
-0.00238616
-0.00139159
0.132544
-0.00358719
-0.00138754
0.131811
-0.00475612
-0.00138307
0.130718
-0.00588334
-0.00137711
0.129271
-0.00696105
-0.00136848
0.127478
-0.0079834
-0.0013561
0.125349
-0.00894594
-0.00133923
0.122897
-0.00984395
-0.00131777
0.120135
-0.0106687
-0.00129206
0.117071
-0.011398
-0.00126242
0.11371
-0.0119624
-0.00122717
0.110019
-0.0120782
-0.00117754
0.105792
-0.0102988
-0.00103342
0.0997984
-0.000660315
0.0867116
0.0102761
-0.00157431
0.085648
0.0120813
-0.00238785
0.0987043
0.0119785
-0.00267596
0.104738
0.0114211
-0.00274326
0.108994
0.0106974
-0.00277007
0.112707
0.0098782
-0.00277987
0.116088
0.00898691
-0.00277939
0.119167
0.00803288
-0.00277063
0.121944
0.00702103
-0.00275485
0.124408
0.0059556
-0.00273371
0.126547
0.00484169
-0.00270945
0.128349
0.00368589
-0.00268456
0.129803
0.00249635
-0.00266148
0.130901
0.00128256
-0.00264225
0.131637
5.51147e-05
-0.00262839
0.132006
-0.00117476
-0.00262077
0.132006
-0.00239553
-0.00261959
0.131637
-0.00359579
-0.0026243
0.130901
-0.00476483
-0.00263357
0.129802
-0.00589308
-0.00264532
0.128348
-0.00697263
-0.00265686
0.126545
-0.00799725
-0.00266537
0.124406
-0.00896199
-0.00266835
0.121941
-0.00986156
-0.00266415
0.119162
-0.0106866
-0.00265193
0.116081
-0.0114141
-0.00263049
0.112699
-0.0119738
-0.00259462
0.108984
-0.0120784
-0.00252379
0.104729
-0.0102757
-0.00224641
0.0986976
-0.00147049
0.085642
0.010226
-0.0023384
0.0835264
0.012074
-0.003543
0.0965192
0.0119889
-0.00397355
0.102627
0.0114358
-0.0040671
0.10694
0.01071
-0.00409807
0.1107
0.00988502
-0.00410255
0.114121
0.00898576
-0.0040914
0.117236
0.00802313
-0.00406835
0.120044
0.00700345
-0.00403581
0.122535
0.00593205
-0.00399665
0.124696
0.00481473
-0.00395441
0.126516
0.00365837
-0.00391286
0.127984
0.00247095
-0.00387557
0.129093
0.00126142
-0.00384551
0.129836
3.95137e-05
-0.0038249
0.130209
-0.00118451
-0.00381514
0.130209
-0.00240012
-0.00381668
0.129836
-0.00359682
-0.00382899
0.129093
-0.0047645
-0.00385033
0.127984
-0.00589383
-0.00387781
0.126515
-0.00697664
-0.00390747
0.124695
-0.00800609
-0.00393482
0.122533
-0.00897615
-0.00395564
0.120041
-0.00988026
-0.0039666
0.117232
-0.0107077
-0.00396537
0.114114
-0.011434
-0.00394895
0.110691
-0.0119864
-0.00390816
0.106929
-0.0120713
-0.00381041
0.102616
-0.0102251
-0.00339123
0.0965106
-0.00222659
0.0835193
0.0101448
-0.00302328
0.0803848
0.0120563
-0.00459748
0.0932771
0.0119985
-0.00518277
0.0994961
0.0114523
-0.00530966
0.103895
0.0107238
-0.00534992
0.107725
0.00989024
-0.00535278
0.111206
0.00897932
-0.00533411
0.114375
0.00800436
-0.00529993
0.117228
0.00697379
-0.00525405
0.119758
0.00589456
-0.00520062
0.121952
0.00477351
-0.00514438
0.123799
0.00361781
-0.00509009
0.125289
0.00243512
-0.00504207
0.126414
0.00123347
-0.00500388
0.127168
2.13232e-05
-0.00497817
0.127545
-0.00119259
-0.00496665
0.127545
-0.00239927
-0.00497007
0.127168
-0.00358959
-0.00498799
0.126414
-0.00475443
-0.00501862
0.125289
-0.00588492
-0.00505859
0.123799
-0.00697264
-0.00510301
0.121952
-0.00800968
-0.00514605
0.119758
-0.00898842
-0.00518169
0.117227
-0.00990019
-0.00520479
0.114371
-0.0107319
-0.00521108
0.1112
-0.0114568
-0.00519511
0.107716
-0.0119984
-0.00514283
0.103883
-0.0120532
-0.0050091
0.0994825
-0.0101426
-0.0044337
0.0932659
-0.00290052
0.0803761
0.0100263
-0.00360272
0.0762719
0.0120227
-0.00551921
0.0890197
0.012004
-0.00627795
0.0953855
0.0114687
-0.00644826
0.0999006
0.0107372
-0.00650458
0.103823
0.00989259
-0.00651045
0.107385
0.00896659
-0.0064882
0.110622
0.00797583
-0.00644678
0.113536
0.00693166
-0.00639192
0.116117
0.0058432
-0.00632917
0.118354
0.00471851
-0.00626422
0.120236
0.00356505
-0.00620239
0.121755
0.00238986
-0.00614823
0.122901
0.00119973
-0.00610539
0.123668
1.4235e-06
-0.0060766
0.124053
-0.00119823
-0.00606375
0.124053
-0.00239221
-0.00606781
0.123668
-0.00357322
-0.00608865
0.122901
-0.00473357
-0.0061247
0.121755
-0.00586514
-0.00617265
0.120238
-0.00695929
-0.00622728
0.118355
-0.00800688
-0.00628178
0.116118
-0.00899794
-0.00632859
0.113536
-0.00992076
-0.00636044
0.110621
-0.0107589
-0.00637043
0.10738
-0.0114816
-0.00634968
0.103815
-0.0120072
-0.00627774
0.0998872
-0.0120187
-0.00609552
0.0953694
-0.0100216
-0.00534188
0.0890054
-0.00346445
0.0762612
0.00986204
-0.00405261
0.0712534
0.0119666
-0.00627913
0.0838026
0.0120019
-0.00723751
0.0903497
0.0114826
-0.00746398
0.095011
0.0107479
-0.00754396
0.0990498
0.00988996
-0.00755808
0.102709
0.0089456
-0.00753636
0.106031
0.00793609
-0.00749204
0.109018
0.00687641
-0.00743338
0.111661
0.00577824
-0.00736736
0.113951
0.00465086
-0.0073002
0.115877
0.00350171
-0.0072371
0.11743
0.00233691
-0.00718223
0.118602
0.00116171
-0.00713879
0.119387
-1.90686e-05
-0.00710927
0.119781
-0.00120071
-0.00709553
0.11978
-0.00237841
-0.00709873
0.119387
-0.00354701
-0.00711917
0.118602
-0.00470071
-0.00715586
0.117431
-0.00583257
-0.00720609
0.115879
-0.0069341
-0.00726507
0.113954
-0.00799486
-0.0073258
0.111665
-0.00900207
-0.00737963
0.109021
-0.00993994
-0.00741693
0.106033
-0.0107871
-0.00742735
0.102707
-0.0115074
-0.00739671
0.0990431
-0.0120108
-0.00729659
0.0949981
-0.0119622
-0.00705064
0.090332
-0.0098539
-0.00608807
0.0837851
-0.00389308
0.0712403
0.00964218
-0.00435362
0.065411
0.0118804
-0.00685194
0.0776933
0.0119883
-0.00804374
0.0844541
0.0114909
-0.00834119
0.0892929
0.0107529
-0.00845275
0.0934701
0.00987896
-0.00848002
0.097244
0.00891332
-0.00846257
0.100664
0.00788305
-0.00841996
0.103735
0.00680753
-0.00836361
0.106451
0.00570081
-0.00830148
0.108802
0.00457292
-0.00823962
0.110779
0.00343081
-0.00818233
0.112373
0.00227921
-0.00813261
0.113577
0.00112162
-0.00809283
0.114383
-3.89778e-05
-0.008065
0.114787
-0.00119986
-0.00805082
0.114787
-0.00235828
-0.00805161
0.114382
-0.00351133
-0.00806806
0.113577
-0.00465539
-0.0081
0.112374
-0.00578537
-0.00814583
0.110782
-0.00689364
-0.00820204
0.108806
-0.00796898
-0.00826253
0.106457
-0.00899583
-0.00831841
0.103743
-0.0099534
-0.00835814
0.100671
-0.0108137
-0.00836691
0.0972479
-0.0115325
-0.00832285
0.0934682
-0.012007
-0.00818671
0.089283
-0.0118783
-0.00786031
0.0844367
-0.00963116
-0.00664996
0.0776735
-0.00416767
0.0653956
0.00935661
-0.00449492
0.0588421
0.0117564
-0.00721627
0.0707708
0.0119589
-0.00868043
0.0777727
0.0114898
-0.00906446
0.0828216
0.0107471
-0.00921535
0.0871588
0.00985405
-0.0092597
0.091062
0.00886512
-0.00925032
0.0945915
0.00781446
-0.00921491
0.0977566
0.00672545
-0.00916809
0.100554
0.00561381
-0.00911818
0.102975
0.00448932
-0.00906992
0.105011
0.00335746
-0.00902565
0.106653
0.00222123
-0.00898678
0.107893
0.00108249
-0.00895462
0.108723
-5.72316e-05
-0.00893071
0.10914
-0.00119649
-0.00891658
0.109139
-0.00233404
-0.00891359
0.108722
-0.00346877
-0.00892274
0.107892
-0.00459942
-0.0089445
0.106653
-0.00572334
-0.00897873
0.105013
-0.00683492
-0.00902386
0.10298
-0.00792346
-0.00907609
0.100562
-0.00897152
-0.00912771
0.0977684
-0.00995337
-0.00916624
0.0946048
-0.0108327
-0.0091722
0.0910738
-0.0115535
-0.00911356
0.0871651
-0.0119939
-0.00893556
0.0828183
-0.0117615
-0.00851256
0.0777585
-0.00934511
-0.00701063
0.0707505
-0.00428071
0.0588253
0.00899393
-0.00448484
0.0516662
0.0115811
-0.00734895
0.0631226
0.0119026
-0.00912647
0.0703845
0.0114696
-0.00961451
0.0756756
0.0107216
-0.0098119
0.0801946
0.0098071
-0.00987672
0.0842403
0.00879552
-0.00987998
0.0878884
0.00772853
-0.00985881
0.0911559
0.00663248
-0.0098306
0.0940427
0.00552286
-0.00980247
0.0965424
0.00440737
-0.0097763
0.0986459
0.00328912
-0.00975177
0.100343
0.00216907
-0.00972846
0.101625
0.00104798
-0.00970702
0.102484
-7.30573e-05
-0.00968874
0.102914
-0.00119275
-0.00967516
0.102913
-0.00231011
-0.00966758
0.102482
-0.00342504
-0.00966685
0.101622
-0.00453803
-0.00967387
0.100341
-0.00564943
-0.00968945
0.0986461
-0.00675693
-0.00971446
0.0965466
-0.0078526
-0.0097484
0.0940522
-0.00891936
-0.00978695
0.091171
-0.00992782
-0.00981873
0.0879081
-0.0108325
-0.00982032
0.0842617
-0.0115606
-0.00974798
0.0802125
-0.0119618
-0.00952511
0.0756834
-0.0116014
-0.00899052
0.0703775
-0.00898538
-0.0071541
0.0631045
-0.00424628
0.0516504
0.00852051
-0.00434523
0.0440285
0.0113179
-0.00722295
0.0548443
0.0117905
-0.00934882
0.0623644
0.0114087
-0.00996295
0.0679323
0.0106571
-0.0102117
0.0726557
0.00972243
-0.0103003
0.0768556
0.0086944
-0.010323
0.0806297
0.00762194
-0.0103267
0.0840075
0.00653144
-0.0103291
0.0869936
0.00543498
-0.0103336
0.0895817
0.00433597
-0.0103376
0.0917615
0.0032342
-0.0103379
0.0935217
0.00212923
-0.0103333
0.0948517
0.00102178
-0.0103244
0.0957429
-8.60281e-05
-0.0103128
0.0961893
-0.00119145
-0.0103002
0.0961879
-0.00229228
-0.0102878
0.0957392
-0.00338769
-0.0102761
0.0948465
-0.00447906
-0.0102651
0.0935164
-0.00556904
-0.0102563
0.0917581
-0.00665992
-0.010252
0.0895825
-0.00774926
-0.0102555
0.087001
-0.00882425
-0.010268
0.0840232
-0.00985549
-0.0102828
0.0806538
-0.0107889
-0.0102756
0.0768861
-0.0115285
-0.010191
0.072687
-0.0118821
-0.00992469
0.0679551
-0.0113647
-0.00926244
0.0623691
-0.00852377
-0.0070599
0.0548326
-0.00409844
0.044017
0.00790716
-0.00410273
0.036069
0.0108924
-0.00677251
0.0460464
0.0115684
-0.00929446
0.0537741
0.0112595
-0.0100503
0.0596541
0.010507
-0.010348
0.0646042
0.00955981
-0.0104676
0.0689667
0.00853344
-0.0105267
0.072875
0.00747948
-0.0105749
0.0763746
0.00641779
-0.0106254
0.0794731
0.005352
-0.0106745
0.0821625
0.00427945
-0.0107154
0.08443
0.00319731
-0.0107438
0.0862621
0.00210521
-0.0107592
0.0876468
0.00100583
-0.0107633
0.0885747
-9.59446e-05
-0.0107588
0.0890392
-0.00119428
-0.0107478
0.0890373
-0.00228384
-0.010731
0.0885691
-0.00336144
-0.010708
0.0876384
-0.00442688
-0.0106779
0.0862523
-0.00548379
-0.0106407
0.0844209
-0.00653818
-0.0105988
0.082157
-0.00759547
-0.0105576
0.0794744
-0.00865285
-0.0105242
0.076386
-0.00968875
-0.0105004
0.0728985
-0.0106462
-0.0104679
0.069002
-0.0114012
-0.0103671
0.0646465
-0.0116938
-0.0100669
0.0596925
-0.0109752
-0.00927043
0.0537939
-0.00793552
-0.00666453
0.046047
-0.00387856
0.0360632
0.00703566
-0.00367823
0.0279121
0.0102398
-0.00601736
0.0368709
0.0111656
-0.00885553
0.0446731
0.0109107
-0.00969121
0.0508619
0.0101493
-0.0100357
0.0560366
0.00921676
-0.0102241
0.0605651
0.00823968
-0.0103656
0.0646239
0.00725432
-0.0104978
0.0682689
0.00626229
-0.0106225
0.0715036
0.00525505
-0.0107306
0.0743149
0.00422481
-0.0108149
0.0766863
0.00316909
-0.0108741
0.0786023
0.00209085
-0.0109107
0.0800501
0.000997079
-0.0109286
0.0810199
-0.000102606
-0.0109318
0.0815052
-0.00119783
-0.0109227
0.0815026
-0.00227868
-0.0109018
0.0810125
-0.00333727
-0.0108676
0.0800385
-0.00436936
-0.0108173
0.0785878
-0.00537564
-0.0107486
0.0766707
-0.00636293
-0.0106609
0.0743009
-0.00734323
-0.0105577
0.0714949
-0.00832818
-0.0104483
0.0682697
-0.0093168
-0.0103421
0.0646382
-0.0102693
-0.0102346
0.0605953
-0.01105
-0.0100792
0.0560803
-0.0113074
-0.00975153
0.0509082
-0.0103522
-0.00889329
0.0447055
-0.007092
-0.00598035
0.0368858
-0.00351294
0.0279147
0.00691257
-0.00424271
0.0199185
0.0096383
-0.00415175
0.0273354
0.0103974
-0.00746039
0.0351729
0.0100117
-0.00830343
0.0414356
0.00927669
-0.00880242
0.0467313
0.0084745
-0.00917398
0.0514283
0.00766593
-0.00948316
0.0556789
0.00684517
-0.00975455
0.0595136
0.00599081
-0.00998543
0.0629229
0.00508608
-0.0101701
0.0658873
0.00412561
-0.0103087
0.0683868
0.00311396
-0.0104067
0.0704047
0.002062
-0.0104711
0.0719284
0.000983844
-0.0105079
0.0729483
-0.000104992
-0.0105218
0.0734584
-0.0011885
-0.0105154
0.0734558
-0.0022512
-0.0104887
0.0729404
-0.0032788
-0.0104397
0.0719156
-0.0042597
-0.0103641
0.070388
-0.00518654
-0.0102565
0.0683673
-0.00605955
-0.0101116
0.0658669
-0.00688947
-0.00992644
0.0629043
-0.00769831
-0.00970397
0.0595006
-0.0085112
-0.0094526
0.0556761
-0.00933488
-0.00917486
0.0514401
-0.0101014
-0.0088421
0.046759
-0.0105133
-0.008376
0.041474
-0.00974779
-0.00753985
0.0352083
-0.00697394
-0.00418732
0.0273599
-0.00414763
0.0199274
0.00337565
-0.000330079
0.00973342
0.00555362
-0.00138567
0.0179456
0.00642132
-0.0047943
0.0249543
0.00648013
-0.00532225
0.0307457
0.00636372
-0.00590152
0.0359685
0.0061474
-0.00639358
0.040798
0.00585045
-0.00683915
0.0452403
0.00545361
-0.00722253
0.0492698
0.0049378
-0.00753863
0.0528627
0.00429908
-0.00778918
0.0559923
0.00354958
-0.00798095
0.0586325
0.00271086
-0.00812296
0.0607637
0.00180734
-0.0082224
0.0623718
0.000863001
-0.00828434
0.0634481
-9.88284e-05
-0.00831273
0.0639867
-0.00105514
-0.0083098
0.0639847
-0.00198317
-0.00827544
0.0634421
-0.00286028
-0.00820732
0.0623618
-0.00366368
-0.00810139
0.0607494
-0.00437119
-0.00795293
0.0586147
-0.00496561
-0.00775467
0.055972
-0.00544026
-0.00749961
0.0528416
-0.00580571
-0.00718346
0.0492499
-0.00608783
-0.00680799
0.0452248
-0.00631284
-0.00637939
0.0407916
-0.00646321
-0.00591311
0.0359743
-0.00645672
-0.00536061
0.0307638
-0.00562979
-0.0048585
0.0249798
-0.00346158
-0.00143936
0.0179735
-0.000331547
0.00974404
-0.00012675
0.00755606
0.00255459
0.00977105
0.00239118
0.0150065
0.00258689
0.019607
0.00277938
0.0241762
0.00293237
0.0284978
0.00300951
0.0325044
0.00297932
0.0361825
0.0028174
0.0395078
0.0025283
0.0424301
0.0021311
0.0449111
0.00164885
0.0469232
0.00110524
0.0484473
0.00052327
0.04947
-7.53385e-05
0.0499828
-0.000669723
0.0499815
-0.00123888
0.0494661
-0.00176083
0.0484407
-0.00221212
0.0469139
-0.00256926
0.044899
-0.00280993
0.0424162
-0.00291823
0.0394932
-0.00289495
0.0361681
-0.00277343
0.0324912
-0.00259585
0.0284874
-0.00240913
0.0241704
-0.00225157
0.0196068
-0.00248351
0.0150108
0.000136977
0.0097782
0.00756482
0.000939341
0.000257476
0.00635721
0.00182787
0.000352656
0.00852823
0.00219674
0.00126678
0.0133699
0.00249719
0.00177948
0.017527
0.00259554
0.00246833
0.0216106
0.00254145
0.00310569
0.0254484
0.00237873
0.00366749
0.0290026
0.00215645
0.00414082
0.0322673
0.00190601
0.00453734
0.0352243
0.00164159
0.00487187
0.0378258
0.00136553
0.00515378
0.0400361
0.00107484
0.00538663
0.0418296
0.00076702
0.00556856
0.0431884
0.000442235
0.0056955
0.0441008
0.000103982
0.00576311
0.0445592
-0.000242593
0.00576931
0.0445597
-0.00059293
0.00571474
0.0441023
-0.000945477
0.00560288
0.0431907
-0.00130266
0.00543882
0.0418322
-0.00167042
0.0052275
0.0400388
-0.00205399
0.00496961
0.0378294
-0.00244845
0.0046577
0.035229
-0.00282688
0.00427262
0.0322727
-0.00313064
0.00378583
0.0290073
-0.00327061
0.00317358
0.0254515
-0.00316015
0.00244546
0.0216122
-0.00272882
0.00164605
0.0175274
-0.0021223
0.00103267
0.0133701
-0.000999742
0.000127942
0.0085267
0.000209657
0.00635447
0.000509096