/*--------------------------------*- C++ -*----------------------------------*\
| =========                 |                                                 |
| \\      /  F ield         | OpenFOAM: The Open Source CFD Toolbox           |
|  \\    /   O peration     | Version:  2312                                  |
|   \\  /    A nd           | Website:  www.openfoam.com                      |
|    \\/     M anipulation  |                                                 |
\*---------------------------------------------------------------------------*/
FoamFile
{
    version     2.0;
    format      ascii;
    arch        "LSB;label=32;scalar=64";
    class       volScalarField;
    location    "650";
    object      T;
}
// * * * * * * * * * * * * * * * * * * * * * * * * * * * * * * * * * * * * * //

dimensions      [0 0 0 1 0 0 0];

internalField   nonuniform List<scalar> 
27000
(
425.606
355.48
347.005
342.963
342.344
342.484
342.733
342.993
343.243
343.456
343.627
343.76
343.861
343.928
343.963
343.965
343.935
343.872
343.776
343.647
343.479
343.266
343.013
342.746
342.481
342.313
342.889
346.868
355.268
425.179
335.873
354.259
348.196
346.608
346.382
346.641
346.937
347.176
347.361
347.5
347.604
347.68
347.735
347.771
347.791
347.795
347.784
347.755
347.707
347.636
347.532
347.388
347.192
346.931
346.601
346.297
346.476
348.029
354.087
335.884
342.364
345.568
348.023
347.775
347.648
347.719
347.86
347.993
348.099
348.178
348.236
348.278
348.308
348.328
348.34
348.344
348.34
348.328
348.303
348.263
348.201
348.112
347.989
347.831
347.659
347.558
347.667
347.922
345.527
342.383
342.301
346.116
347.654
347.929
347.937
347.966
348.039
348.125
348.205
348.27
348.321
348.358
348.385
348.403
348.413
348.417
348.413
348.401
348.377
348.339
348.283
348.206
348.11
348.003
347.911
347.87
347.864
347.609
346.11
342.323
342.726
346.669
347.833
348.032
348.063
348.077
348.114
348.168
348.226
348.28
348.324
348.359
348.385
348.403
348.413
348.416
348.412
348.398
348.373
348.336
348.285
348.221
348.15
348.083
348.038
348.022
348.001
347.823
346.686
342.755
343.153
347.053
347.994
348.137
348.154
348.156
348.17
348.2
348.239
348.28
348.317
348.349
348.373
348.39
348.399
348.402
348.396
348.382
348.359
348.325
348.282
348.234
348.186
348.15
348.134
348.137
348.133
348.008
347.086
343.187
343.55
347.317
348.1
348.215
348.223
348.216
348.217
348.231
348.255
348.284
348.313
348.339
348.361
348.376
348.385
348.387
348.381
348.368
348.347
348.319
348.286
348.253
348.225
348.21
348.212
348.226
348.23
348.13
347.36
343.585
343.887
347.504
348.17
348.266
348.271
348.261
348.256
348.26
348.273
348.292
348.314
348.335
348.352
348.365
348.373
348.375
348.37
348.359
348.342
348.32
348.297
348.276
348.262
348.26
348.27
348.289
348.294
348.209
347.55
343.92
344.17
347.638
348.214
348.298
348.302
348.292
348.284
348.283
348.289
348.302
348.317
348.333
348.348
348.359
348.365
348.367
348.363
348.354
348.341
348.325
348.31
348.298
348.293
348.297
348.311
348.329
348.333
348.256
347.682
344.199
344.405
347.734
348.241
348.315
348.319
348.311
348.303
348.3
348.303
348.311
348.322
348.335
348.346
348.355
348.36
348.362
348.359
348.352
348.343
348.332
348.322
348.316
348.316
348.323
348.336
348.351
348.352
348.283
347.774
344.428
344.589
347.801
348.256
348.322
348.327
348.321
348.314
348.311
348.313
348.318
348.327
348.337
348.346
348.353
348.358
348.359
348.357
348.352
348.346
348.338
348.332
348.329
348.331
348.338
348.349
348.361
348.359
348.295
347.836
344.609
344.729
347.848
348.263
348.323
348.329
348.324
348.319
348.317
348.319
348.324
348.331
348.339
348.346
348.352
348.356
348.358
348.357
348.353
348.348
348.343
348.339
348.337
348.339
348.345
348.354
348.362
348.358
348.298
347.878
344.745
344.829
347.878
348.266
348.321
348.327
348.324
348.321
348.32
348.322
348.327
348.333
348.34
348.347
348.352
348.356
348.357
348.357
348.354
348.35
348.346
348.343
348.342
348.343
348.347
348.354
348.359
348.354
348.297
347.904
344.842
344.892
347.896
348.266
348.318
348.325
348.323
348.321
348.321
348.324
348.328
348.334
348.341
348.347
348.352
348.355
348.357
348.356
348.354
348.351
348.348
348.345
348.343
348.344
348.346
348.351
348.355
348.349
348.295
347.919
344.905
344.923
347.904
348.265
348.316
348.322
348.321
348.32
348.321
348.324
348.328
348.334
348.341
348.347
348.351
348.355
348.356
348.356
348.354
348.351
348.347
348.344
348.343
348.343
348.345
348.348
348.351
348.345
348.292
347.926
344.935
344.923
347.903
348.264
348.315
348.321
348.32
348.319
348.32
348.323
348.327
348.333
348.34
348.346
348.35
348.354
348.355
348.354
348.352
348.349
348.346
348.343
348.341
348.341
348.342
348.346
348.349
348.343
348.29
347.924
344.934
344.891
347.893
348.263
348.315
348.322
348.32
348.318
348.318
348.321
348.326
348.332
348.338
348.344
348.349
348.353
348.354
348.353
348.351
348.347
348.343
348.34
348.337
348.338
348.34
348.344
348.348
348.343
348.289
347.915
344.902
344.826
347.874
348.261
348.316
348.323
348.319
348.316
348.315
348.318
348.322
348.329
348.336
348.343
348.348
348.351
348.352
348.351
348.348
348.344
348.339
348.335
348.332
348.333
348.337
348.343
348.348
348.343
348.288
347.897
344.838
344.726
347.842
348.257
348.317
348.322
348.318
348.313
348.311
348.312
348.318
348.325
348.333
348.341
348.347
348.351
348.351
348.35
348.345
348.339
348.333
348.328
348.325
348.325
348.331
348.339
348.347
348.343
348.285
347.867
344.739
344.586
347.795
348.248
348.314
348.319
348.312
348.305
348.302
348.304
348.311
348.32
348.329
348.339
348.346
348.35
348.351
348.348
348.343
348.334
348.326
348.318
348.313
348.313
348.319
348.33
348.341
348.34
348.277
347.821
344.601
344.4
347.726
348.232
348.305
348.309
348.3
348.292
348.289
348.293
348.302
348.313
348.326
348.338
348.347
348.352
348.352
348.349
348.341
348.33
348.317
348.305
348.297
348.295
348.3
348.313
348.327
348.328
348.26
347.755
344.418
344.166
347.63
348.203
348.286
348.289
348.279
348.271
348.27
348.278
348.291
348.307
348.324
348.339
348.349
348.356
348.356
348.351
348.341
348.326
348.309
348.291
348.277
348.27
348.272
348.284
348.3
348.304
348.229
347.659
344.186
343.882
347.496
348.157
348.252
348.256
348.246
348.24
348.245
348.259
348.28
348.303
348.324
348.343
348.356
348.363
348.364
348.358
348.345
348.327
348.303
348.277
348.254
348.237
348.232
348.24
348.256
348.261
348.176
347.523
343.904
343.545
347.307
348.085
348.198
348.204
348.198
348.2
348.215
348.241
348.271
348.302
348.329
348.351
348.366
348.374
348.375
348.369
348.354
348.332
348.302
348.267
348.231
348.2
348.181
348.179
348.19
348.193
348.093
347.328
343.566
343.147
347.04
347.975
348.116
348.132
348.134
348.15
348.183
348.224
348.267
348.306
348.339
348.363
348.38
348.389
348.39
348.384
348.368
348.343
348.308
348.263
348.212
348.162
348.122
348.102
348.1
348.092
347.966
347.05
343.165
342.719
346.653
347.809
348.005
348.037
348.054
348.093
348.151
348.212
348.268
348.314
348.35
348.376
348.393
348.403
348.405
348.399
348.384
348.358
348.32
348.267
348.202
348.128
348.058
348.008
347.986
347.959
347.777
346.646
342.73
342.291
346.095
347.624
347.898
347.909
347.942
348.019
348.11
348.193
348.26
348.312
348.35
348.376
348.394
348.403
348.406
348.401
348.388
348.363
348.324
348.267
348.189
348.091
347.983
347.887
347.84
347.825
347.562
346.064
342.293
342.351
345.539
347.984
347.741
347.62
347.698
347.844
347.982
348.09
348.171
348.23
348.271
348.301
348.32
348.331
348.334
348.329
348.315
348.29
348.249
348.187
348.097
347.975
347.817
347.644
347.54
347.639
347.879
345.474
342.344
335.854
354.205
348.155
346.578
346.362
346.628
346.929
347.171
347.357
347.497
347.6
347.676
347.73
347.765
347.784
347.788
347.775
347.746
347.697
347.625
347.521
347.377
347.182
346.923
346.596
346.294
346.47
348.011
354.036
335.828
425.486
355.434
346.979
342.95
342.337
342.48
342.732
342.992
343.242
343.455
343.625
343.758
343.858
343.926
343.96
343.962
343.931
343.867
343.771
343.641
343.473
343.261
343.008
342.742
342.479
342.315
342.895
346.874
355.263
425.091
449.525
364.478
348.446
339.652
336.811
336.054
335.939
336.045
336.239
336.453
336.651
336.814
336.934
337.012
337.048
337.044
336.998
336.91
336.779
336.606
336.401
336.186
335.998
335.91
336.065
336.9
339.859
348.787
364.941
450.381
332.127
361.9
352.993
347.624
344.585
343.509
343.339
343.48
343.702
343.926
344.123
344.279
344.393
344.465
344.497
344.49
344.443
344.356
344.229
344.061
343.86
343.642
343.441
343.346
343.593
344.77
347.9
353.303
362.203
332.103
336.969
343.799
349.79
349.318
348
347.153
346.792
346.686
346.684
346.72
346.764
346.805
346.837
346.857
346.863
346.854
346.832
346.798
346.755
346.709
346.668
346.648
346.683
346.842
347.272
348.184
349.532
349.974
343.884
336.967
335.958
341.868
346.503
348.203
348.312
348.044
347.807
347.663
347.584
347.54
347.518
347.506
347.5
347.496
347.491
347.483
347.475
347.468
347.467
347.478
347.509
347.572
347.684
347.871
348.15
348.445
348.331
346.583
341.888
335.933
336.307
342.219
345.997
347.551
348.042
348.101
348.028
347.938
347.862
347.804
347.762
347.732
347.712
347.698
347.688
347.682
347.681
347.687
347.704
347.736
347.788
347.864
347.964
348.08
348.173
348.118
347.61
346.013
342.189
336.257
336.655
342.962
346.221
347.419
347.869
348.015
348.03
347.994
347.944
347.895
347.853
347.819
347.794
347.776
347.765
347.761
347.764
347.776
347.8
347.836
347.887
347.949
348.014
348.063
348.052
347.899
347.427
346.192
342.898
336.593
337.048
343.59
346.489
347.444
347.802
347.944
347.989
347.984
347.956
347.92
347.884
347.853
347.828
347.81
347.799
347.796
347.801
347.815
347.839
347.873
347.914
347.958
347.993
348.001
347.953
347.797
347.417
346.432
343.511
336.981
337.475
344.092
346.702
347.496
347.782
347.903
347.95
347.958
347.943
347.918
347.89
347.863
347.84
347.823
347.813
347.811
347.816
347.83
347.851
347.879
347.911
347.939
347.955
347.945
347.89
347.755
347.448
346.632
344.011
337.413
337.872
344.496
346.872
347.549
347.783
347.881
347.922
347.933
347.924
347.906
347.884
347.861
347.841
347.827
347.818
347.816
347.821
347.833
347.851
347.873
347.896
347.914
347.92
347.904
347.854
347.742
347.492
346.801
344.423
337.82
338.213
344.818
347.01
347.601
347.795
347.874
347.906
347.914
347.907
347.892
347.874
347.855
347.838
347.825
347.818
347.816
347.82
347.83
347.844
347.862
347.879
347.891
347.893
347.879
347.838
347.748
347.542
346.944
344.756
338.172
338.499
345.071
347.122
347.648
347.813
347.875
347.898
347.901
347.894
347.88
347.864
347.848
347.833
347.822
347.815
347.813
347.817
347.825
347.837
347.851
347.864
347.874
347.876
347.866
347.836
347.766
347.594
347.064
345.021
338.467
338.729
345.265
347.209
347.69
347.832
347.881
347.895
347.894
347.885
347.871
347.856
347.841
347.828
347.818
347.812
347.81
347.813
347.82
347.83
347.841
347.853
347.863
347.867
347.863
347.842
347.788
347.641
347.16
345.224
338.703
338.901
345.405
347.274
347.723
347.85
347.889
347.896
347.891
347.879
347.865
347.85
347.836
347.824
347.815
347.81
347.808
347.81
347.816
347.824
347.835
347.846
347.856
347.863
347.864
347.852
347.809
347.68
347.232
345.371
338.88
339.015
345.496
347.316
347.746
347.863
347.895
347.899
347.89
347.876
347.861
347.846
347.833
347.821
347.813
347.808
347.806
347.808
347.813
347.821
347.831
347.842
347.854
347.863
347.867
347.86
347.825
347.707
347.28
345.467
338.997
339.072
345.541
347.338
347.758
347.87
347.899
347.9
347.89
347.875
347.86
347.845
347.831
347.82
347.812
347.807
347.805
347.807
347.812
347.82
347.83
347.841
347.853
347.864
347.87
347.866
347.834
347.722
347.304
345.515
339.056
339.073
345.542
347.339
347.758
347.87
347.9
347.9
347.89
347.876
347.86
347.845
347.831
347.82
347.812
347.807
347.805
347.807
347.813
347.821
347.831
347.842
347.854
347.865
347.872
347.867
347.836
347.723
347.306
345.516
339.057
339.017
345.498
347.318
347.747
347.864
347.896
347.899
347.891
347.877
347.862
347.847
347.833
347.822
347.813
347.808
347.807
347.809
347.815
347.823
347.834
347.845
347.857
347.867
347.872
347.865
347.83
347.712
347.284
345.471
339
338.903
345.408
347.276
347.725
347.851
347.89
347.898
347.892
347.88
347.866
347.851
347.837
347.825
347.816
347.811
347.809
347.812
347.818
347.828
347.839
347.851
347.862
347.87
347.872
347.86
347.817
347.688
347.239
345.377
338.884
338.732
345.268
347.212
347.692
347.835
347.883
347.898
347.896
347.887
347.873
347.857
347.842
347.829
347.819
347.814
347.813
347.816
347.824
347.834
347.847
347.86
347.871
347.877
347.874
347.854
347.8
347.653
347.172
345.233
338.709
338.502
345.075
347.125
347.651
347.816
347.878
347.901
347.904
347.897
347.883
347.866
347.849
347.835
347.824
347.817
347.816
347.82
347.83
347.843
347.858
347.873
347.885
347.889
347.881
347.852
347.783
347.611
347.081
345.034
338.475
338.216
344.822
347.014
347.604
347.8
347.879
347.911
347.919
347.912
347.896
347.877
347.857
347.84
347.827
347.82
347.819
347.824
347.836
347.852
347.871
347.89
347.905
347.91
347.898
347.859
347.771
347.566
346.967
344.775
338.183
337.874
344.499
346.876
347.555
347.79
347.889
347.93
347.94
347.931
347.911
347.888
347.864
347.844
347.829
347.821
347.82
347.826
347.839
347.859
347.884
347.909
347.93
347.939
347.927
347.88
347.771
347.522
346.83
344.447
337.835
337.477
344.094
346.708
347.505
347.793
347.914
347.961
347.968
347.952
347.925
347.894
347.866
347.843
347.826
347.817
347.815
347.822
347.837
347.861
347.891
347.926
347.957
347.977
347.971
347.92
347.79
347.486
346.67
344.042
337.433
337.049
343.593
346.498
347.458
347.818
347.961
348.004
347.997
347.966
347.928
347.89
347.857
347.831
347.813
347.803
347.8
347.807
347.823
347.849
347.885
347.93
347.977
348.016
348.03
347.987
347.838
347.463
346.478
343.548
337.005
336.658
342.969
346.237
347.44
347.892
348.037
348.049
348.01
347.956
347.903
347.858
347.823
347.797
347.779
347.769
347.766
347.771
347.785
347.81
347.85
347.903
347.968
348.037
348.091
348.088
347.943
347.479
346.247
342.943
336.623
336.313
342.234
346.023
347.583
348.074
348.129
348.051
347.955
347.874
347.812
347.767
347.735
347.714
347.7
347.692
347.687
347.688
347.696
347.715
347.75
347.804
347.882
347.985
348.106
348.206
348.163
347.667
346.078
342.245
336.295
335.971
341.895
346.542
348.247
348.353
348.078
347.832
347.679
347.593
347.546
347.521
347.508
347.502
347.499
347.494
347.489
347.482
347.477
347.478
347.491
347.524
347.589
347.702
347.891
348.174
348.481
348.385
346.656
341.96
335.983
336.992
343.842
349.848
349.374
348.046
347.186
346.813
346.697
346.69
346.722
346.765
346.806
346.838
346.859
346.867
346.86
346.84
346.808
346.767
346.722
346.682
346.663
346.697
346.855
347.284
348.201
349.566
350.04
343.972
337.037
332.149
361.985
353.064
347.682
344.625
343.532
343.349
343.483
343.702
343.925
344.122
344.28
344.395
344.468
344.502
344.495
344.45
344.365
344.239
344.072
343.872
343.654
343.452
343.353
343.595
344.767
347.9
353.326
362.28
332.206
449.738
364.575
348.512
339.691
336.831
336.061
335.94
336.042
336.237
336.451
336.65
336.814
336.935
337.014
337.051
337.047
337.002
336.915
336.785
336.613
336.409
336.194
336.004
335.916
336.067
336.894
339.843
348.766
364.935
450.505
443.743
361.214
345.861
337.136
334.243
333.437
333.289
333.333
333.438
333.541
333.63
333.704
333.763
333.805
333.829
333.834
333.821
333.789
333.741
333.678
333.597
333.497
333.389
333.326
333.428
334.142
336.888
345.453
360.682
442.751
332.173
359.808
351.873
346.133
342.392
340.827
340.479
340.636
340.946
341.261
341.534
341.751
341.912
342.021
342.078
342.086
342.043
341.949
341.801
341.596
341.33
341.011
340.682
340.48
340.751
342.213
345.86
351.563
359.48
332.171
336.032
343.228
349.315
348.783
346.849
345.468
344.961
344.982
345.202
345.45
345.665
345.831
345.95
346.028
346.07
346.078
346.051
345.987
345.88
345.721
345.505
345.244
344.993
344.92
345.357
346.673
348.577
349.133
343.134
336.004
333.942
340.176
345.328
347.652
347.816
347.38
347.095
347.05
347.142
347.275
347.399
347.497
347.568
347.614
347.641
347.648
347.636
347.602
347.541
347.445
347.314
347.161
347.037
347.039
347.279
347.686
347.526
345.244
340.139
333.941
333.974
339.807
344.152
346.701
347.664
347.834
347.808
347.806
347.859
347.939
348.02
348.087
348.137
348.17
348.19
348.196
348.188
348.164
348.119
348.052
347.962
347.864
347.786
347.76
347.764
347.588
346.64
344.129
339.822
334.016
334.177
340.379
344.399
346.643
347.599
347.936
348.044
348.094
348.145
348.205
348.264
348.316
348.356
348.384
348.4
348.405
348.397
348.376
348.339
348.285
348.218
348.145
348.078
348.014
347.9
347.569
346.633
344.424
340.435
334.24
334.364
341.044
345.003
346.917
347.696
348.017
348.154
348.225
348.279
348.33
348.378
348.42
348.454
348.477
348.491
348.495
348.488
348.468
348.436
348.392
348.339
348.281
348.219
348.144
348.009
347.701
346.944
345.058
341.122
334.435
334.54
341.626
345.527
347.198
347.838
348.106
348.233
348.305
348.356
348.4
348.44
348.475
348.504
348.524
348.536
348.539
348.532
348.515
348.488
348.452
348.41
348.362
348.309
348.239
348.12
347.867
347.246
345.596
341.709
334.607
334.714
342.111
345.908
347.407
347.958
348.186
348.297
348.361
348.408
348.446
348.48
348.509
348.533
348.55
348.56
348.563
348.557
348.542
348.52
348.491
348.457
348.419
348.375
348.315
348.214
348
347.465
345.978
342.186
334.771
334.88
342.508
346.178
347.548
348.042
348.245
348.344
348.403
348.445
348.478
348.506
348.531
348.551
348.566
348.575
348.576
348.571
348.56
348.542
348.519
348.492
348.461
348.423
348.371
348.28
348.089
347.606
346.242
342.571
334.926
335.028
342.823
346.368
347.64
348.095
348.284
348.378
348.433
348.471
348.501
348.525
348.547
348.564
348.576
348.584
348.586
348.582
348.572
348.558
348.539
348.517
348.49
348.457
348.408
348.321
348.141
347.693
346.423
342.874
335.065
335.153
343.063
346.5
347.699
348.127
348.307
348.399
348.453
348.489
348.517
348.539
348.558
348.573
348.584
348.59
348.592
348.589
348.581
348.569
348.553
348.534
348.51
348.478
348.43
348.344
348.169
347.745
346.546
343.104
335.183
335.251
343.237
346.589
347.735
348.145
348.321
348.411
348.465
348.501
348.527
348.548
348.566
348.579
348.589
348.595
348.597
348.594
348.587
348.577
348.563
348.545
348.522
348.491
348.442
348.356
348.184
347.776
346.627
343.27
335.275
335.317
343.349
346.644
347.756
348.154
348.327
348.418
348.471
348.507
348.533
348.554
348.571
348.584
348.593
348.599
348.6
348.598
348.591
348.582
348.568
348.551
348.529
348.497
348.447
348.36
348.19
347.792
346.677
343.377
335.338
335.351
343.404
346.67
347.766
348.159
348.33
348.421
348.475
348.51
348.537
348.557
348.573
348.586
348.595
348.6
348.602
348.599
348.593
348.584
348.571
348.554
348.532
348.499
348.449
348.362
348.192
347.8
346.701
343.43
335.37
335.351
343.404
346.67
347.767
348.159
348.331
348.421
348.475
348.511
348.537
348.557
348.573
348.586
348.595
348.6
348.602
348.599
348.593
348.584
348.571
348.554
348.531
348.499
348.448
348.361
348.192
347.799
346.7
343.429
335.37
335.317
343.349
346.644
347.757
348.155
348.328
348.419
348.472
348.508
348.534
348.555
348.571
348.584
348.594
348.599
348.6
348.598
348.591
348.581
348.567
348.55
348.527
348.495
348.445
348.358
348.188
347.791
346.676
343.376
335.337
335.25
343.236
346.589
347.737
348.146
348.322
348.413
348.466
348.502
348.528
348.549
348.567
348.58
348.59
348.596
348.597
348.594
348.587
348.576
348.561
348.543
348.519
348.488
348.438
348.352
348.18
347.773
346.624
343.267
335.273
335.152
343.063
346.501
347.701
348.129
348.309
348.4
348.454
348.49
348.518
348.54
348.559
348.574
348.585
348.592
348.593
348.589
348.58
348.567
348.551
348.53
348.506
348.473
348.424
348.338
348.164
347.74
346.541
343.099
335.179
335.028
342.824
346.37
347.643
348.098
348.286
348.379
348.434
348.472
348.502
348.527
348.548
348.565
348.578
348.585
348.586
348.581
348.571
348.555
348.535
348.512
348.484
348.45
348.4
348.313
348.132
347.685
346.415
342.866
335.059
334.881
342.51
346.182
347.552
348.045
348.246
348.345
348.403
348.445
348.478
348.507
348.533
348.553
348.568
348.576
348.577
348.571
348.558
348.539
348.514
348.486
348.453
348.414
348.36
348.268
348.076
347.593
346.23
342.56
334.918
334.716
342.116
345.913
347.41
347.96
348.186
348.295
348.36
348.406
348.445
348.48
348.51
348.535
348.552
348.562
348.564
348.556
348.541
348.517
348.486
348.45
348.409
348.363
348.301
348.197
347.982
347.446
345.96
342.171
334.759
334.544
341.633
345.531
347.199
347.836
348.103
348.228
348.3
348.353
348.399
348.441
348.477
348.506
348.527
348.539
348.54
348.532
348.513
348.484
348.446
348.401
348.35
348.294
348.221
348.099
347.843
347.221
345.571
341.688
334.592
334.369
341.05
345.004
346.914
347.689
348.008
348.145
348.218
348.274
348.327
348.378
348.422
348.457
348.481
348.494
348.497
348.488
348.466
348.432
348.385
348.329
348.267
348.202
348.123
347.984
347.673
346.913
345.027
341.096
334.416
334.181
340.381
344.395
346.632
347.584
347.92
348.029
348.083
348.138
348.202
348.265
348.319
348.36
348.388
348.403
348.407
348.398
348.374
348.334
348.278
348.207
348.131
348.06
347.991
347.873
347.535
346.595
344.385
340.402
334.216
333.974
339.801
344.139
346.68
347.639
347.809
347.787
347.792
347.851
347.937
348.022
348.091
348.141
348.175
348.194
348.198
348.189
348.162
348.115
348.044
347.951
347.849
347.767
347.737
347.736
347.553
346.598
344.083
339.78
333.986
333.935
340.161
345.302
347.615
347.776
347.345
347.07
347.035
347.135
347.275
347.403
347.502
347.573
347.619
347.645
347.651
347.637
347.601
347.536
347.438
347.303
347.147
347.019
347.017
347.253
347.653
347.485
345.195
340.089
333.903
336.02
343.201
349.266
348.727
346.798
345.43
344.938
344.971
345.2
345.453
345.67
345.836
345.955
346.032
346.073
346.08
346.051
345.985
345.876
345.714
345.495
345.23
344.977
344.901
345.337
346.649
348.545
349.087
343.078
335.957
332.172
359.728
351.795
346.062
342.341
340.798
340.467
340.635
340.95
341.267
341.54
341.756
341.917
342.024
342.08
342.086
342.042
341.947
341.797
341.59
341.322
341.001
340.669
340.465
340.736
342.199
345.843
351.536
359.429
332.115
443.507
361.09
345.767
337.076
334.212
333.425
333.288
333.338
333.443
333.547
333.635
333.708
333.766
333.807
333.831
333.835
333.821
333.788
333.739
333.675
333.593
333.491
333.382
333.317
333.418
334.135
336.887
345.455
360.676
442.66
444.869
362.637
347.398
337.955
333.985
332.303
331.594
331.317
331.24
331.241
331.269
331.302
331.331
331.35
331.356
331.349
331.329
331.297
331.255
331.21
331.174
331.169
331.257
331.571
332.36
334.188
338.371
348.019
363.386
446.217
331.2
359.725
352.551
346.937
342.565
340.036
338.823
338.372
338.306
338.409
338.565
338.719
338.845
338.93
338.969
338.959
338.902
338.799
338.656
338.489
338.326
338.231
338.328
338.844
340.16
342.816
347.296
352.946
360.167
331.207
335.443
342.832
349.359
349.197
347.092
345.006
343.643
342.97
342.753
342.778
342.906
343.055
343.184
343.272
343.312
343.301
343.239
343.129
342.982
342.822
342.696
342.691
342.954
343.699
345.148
347.309
349.444
349.576
342.939
335.476
332.793
339.241
344.705
347.549
347.954
347.245
346.427
345.884
345.628
345.561
345.59
345.651
345.71
345.751
345.767
345.756
345.72
345.66
345.586
345.516
345.494
345.588
345.892
346.497
347.372
348.111
347.695
344.801
339.292
332.824
332.242
338.091
342.687
345.834
347.357
347.663
347.457
347.174
346.968
346.855
346.808
346.795
346.795
346.797
346.795
346.786
346.772
346.756
346.747
346.759
346.817
346.954
347.196
347.518
347.752
347.45
345.904
342.717
338.086
332.209
332.15
338.085
342.226
345.147
346.838
347.506
347.634
347.56
347.447
347.354
347.291
347.252
347.229
347.214
347.204
347.197
347.194
347.199
347.218
347.259
347.332
347.444
347.58
347.673
347.552
346.873
345.155
342.196
338.028
332.084
332.196
338.435
342.454
345.16
346.682
347.355
347.594
347.632
347.593
347.535
347.482
347.442
347.412
347.392
347.38
347.375
347.378
347.391
347.417
347.461
347.52
347.589
347.639
347.607
347.363
346.669
345.117
342.38
338.347
332.118
332.302
338.868
342.898
345.436
346.725
347.3
347.541
347.62
347.622
347.592
347.555
347.52
347.492
347.472
347.46
347.456
347.461
347.476
347.502
347.538
347.578
347.612
347.613
347.532
347.279
346.682
345.362
342.804
338.772
332.226
332.44
339.3
343.367
345.744
346.83
347.304
347.514
347.597
347.616
347.603
347.578
347.55
347.525
347.507
347.496
347.493
347.498
347.513
347.535
347.562
347.587
347.6
347.579
347.49
347.266
346.772
345.661
343.271
339.211
332.373
332.582
339.697
343.791
346.006
346.94
347.334
347.509
347.582
347.604
347.598
347.58
347.557
347.536
347.519
347.51
347.507
347.512
347.525
347.543
347.563
347.58
347.583
347.556
347.474
347.288
346.878
345.928
343.704
339.621
332.527
332.713
340.04
344.145
346.216
347.038
347.371
347.515
347.576
347.594
347.59
347.574
347.554
347.536
347.521
347.512
347.509
347.514
347.525
347.54
347.557
347.569
347.569
347.545
347.476
347.323
346.978
346.147
344.073
339.979
332.668
332.823
340.319
344.422
346.376
347.117
347.407
347.527
347.575
347.588
347.582
347.567
347.548
347.531
347.517
347.509
347.506
347.511
347.521
347.534
347.549
347.56
347.561
347.542
347.487
347.36
347.063
346.317
344.365
340.271
332.787
332.909
340.53
344.623
346.493
347.179
347.437
347.54
347.578
347.585
347.576
347.56
347.542
347.525
347.512
347.504
347.502
347.506
347.515
347.528
347.542
347.554
347.558
347.545
347.501
347.393
347.13
346.442
344.576
340.491
332.879
332.967
340.671
344.752
346.568
347.22
347.459
347.55
347.581
347.584
347.573
347.556
347.538
347.521
347.508
347.5
347.498
347.502
347.511
347.524
347.538
347.551
347.557
347.549
347.513
347.418
347.176
346.524
344.713
340.639
332.941
332.998
340.742
344.815
346.605
347.241
347.47
347.555
347.583
347.584
347.571
347.554
347.535
347.518
347.505
347.498
347.496
347.5
347.509
347.522
347.537
347.55
347.558
347.552
347.52
347.431
347.199
346.564
344.779
340.713
332.973
332.998
340.743
344.815
346.605
347.24
347.47
347.555
347.583
347.583
347.571
347.554
347.535
347.518
347.505
347.498
347.496
347.5
347.509
347.522
347.537
347.551
347.559
347.553
347.521
347.432
347.2
346.564
344.779
340.713
332.973
332.968
340.671
344.752
346.567
347.219
347.458
347.549
347.58
347.584
347.573
347.556
347.537
347.521
347.508
347.5
347.498
347.503
347.512
347.526
347.54
347.554
347.56
347.552
347.516
347.421
347.178
346.525
344.713
340.639
332.942
332.909
340.53
344.622
346.491
347.177
347.436
347.539
347.577
347.584
347.576
347.56
347.542
347.525
347.512
347.504
347.503
347.507
347.517
347.531
347.546
347.559
347.563
347.551
347.507
347.398
347.134
346.446
344.578
340.493
332.88
332.824
340.319
344.42
346.373
347.115
347.405
347.526
347.574
347.587
347.582
347.566
347.548
347.53
347.517
347.509
347.507
347.513
347.524
347.538
347.554
347.567
347.569
347.551
347.496
347.368
347.071
346.323
344.369
340.275
332.79
332.713
340.038
344.14
346.211
347.034
347.369
347.514
347.575
347.594
347.59
347.574
347.554
347.535
347.52
347.512
347.51
347.516
347.529
347.545
347.564
347.578
347.579
347.556
347.489
347.335
346.99
346.157
344.081
339.986
332.673
332.581
339.692
343.784
346
346.937
347.333
347.509
347.583
347.605
347.599
347.579
347.556
347.535
347.519
347.509
347.508
347.514
347.529
347.549
347.571
347.59
347.595
347.571
347.491
347.305
346.896
345.944
343.717
339.632
332.535
332.436
339.292
343.358
345.737
346.828
347.305
347.517
347.6
347.618
347.604
347.578
347.549
347.524
347.505
347.495
347.493
347.5
347.517
347.541
347.571
347.6
347.615
347.597
347.511
347.289
346.796
345.684
343.291
339.227
332.385
332.297
338.859
342.889
345.431
346.726
347.304
347.548
347.626
347.626
347.594
347.555
347.518
347.489
347.469
347.457
347.455
347.462
347.48
347.509
347.547
347.592
347.63
347.635
347.558
347.308
346.713
345.394
342.833
338.796
332.243
332.19
338.428
342.449
345.162
346.69
347.367
347.606
347.641
347.598
347.537
347.481
347.438
347.407
347.387
347.376
347.372
347.377
347.393
347.423
347.47
347.534
347.607
347.663
347.636
347.397
346.708
345.158
342.419
338.38
332.142
332.146
338.084
342.23
345.16
346.856
347.526
347.653
347.574
347.454
347.355
347.288
347.246
347.222
347.207
347.198
347.193
347.193
347.201
347.223
347.268
347.346
347.463
347.604
347.704
347.59
346.917
345.205
342.246
338.071
332.115
332.244
338.099
342.703
345.859
347.388
347.694
347.482
347.189
346.974
346.854
346.802
346.786
346.786
346.788
346.788
346.781
346.769
346.756
346.751
346.767
346.83
346.972
347.219
347.548
347.79
347.496
345.958
342.775
338.139
332.249
332.805
339.259
344.734
347.592
348.002
347.287
346.457
345.898
345.63
345.555
345.58
345.64
345.699
345.741
345.759
345.75
345.716
345.659
345.588
345.523
345.505
345.604
345.913
346.524
347.405
348.153
347.748
344.864
339.354
332.872
335.455
342.86
349.416
349.265
347.155
345.053
343.67
342.98
342.751
342.77
342.894
343.043
343.173
343.263
343.305
343.296
343.235
343.128
342.984
342.828
342.706
342.706
342.973
343.722
345.175
347.342
349.487
349.633
343.004
335.533
331.183
359.826
352.652
347.03
342.635
340.078
338.842
338.375
338.301
338.399
338.554
338.709
338.836
338.922
338.963
338.955
338.899
338.798
338.658
338.493
338.334
338.244
338.344
338.864
340.181
342.84
347.324
352.988
360.226
331.246
445.177
362.816
347.542
338.052
334.038
332.326
331.6
331.313
331.232
331.233
331.26
331.294
331.324
331.344
331.352
331.346
331.327
331.296
331.256
331.213
331.179
331.177
331.269
331.585
332.375
334.201
338.379
348.029
363.415
446.334
435.305
357.429
343.514
335.411
332.533
331.465
331.044
330.879
330.829
330.819
330.824
330.835
330.848
330.86
330.87
330.877
330.88
330.882
330.882
330.884
330.888
330.902
330.946
331.08
331.43
332.349
334.971
342.79
356.478
433.618
331.222
356.474
349.691
344.447
340.712
338.746
337.889
337.609
337.596
337.687
337.805
337.919
338.013
338.081
338.12
338.129
338.108
338.058
337.981
337.884
337.774
337.68
337.668
337.884
338.631
340.448
344.039
349.225
355.939
331.186
335.152
342.051
347.738
347.383
345.442
343.643
342.523
342.009
341.875
341.931
342.056
342.191
342.307
342.392
342.441
342.452
342.425
342.361
342.264
342.142
342.018
341.946
342.036
342.475
343.496
345.203
347.099
347.48
341.918
335.084
332.293
338.732
343.905
346.465
346.815
346.201
345.51