/*--------------------------------*- C++ -*----------------------------------*\
| =========                 |                                                 |
| \\      /  F ield         | OpenFOAM: The Open Source CFD Toolbox           |
|  \\    /   O peration     | Version:  2312                                  |
|   \\  /    A nd           | Website:  www.openfoam.com                      |
|    \\/     M anipulation  |                                                 |
\*---------------------------------------------------------------------------*/
FoamFile
{
    version     2.0;
    format      ascii;
    arch        "LSB;label=32;scalar=64";
    class       volVectorField;
    location    "650";
    object      U;
}
// * * * * * * * * * * * * * * * * * * * * * * * * * * * * * * * * * * * * * //

dimensions      [0 1 -1 0 0 0 0];

internalField   nonuniform List<vector> 
27000
(
(-7.44736e-05 0.000112683 0.107355)
(-0.000227396 0.000233465 0.0763324)
(-0.000126846 0.000239957 0.0818289)
(-9.88913e-05 0.000215611 0.0835092)
(-6.33851e-05 0.000206265 0.0854291)
(-4.02863e-05 0.000202951 0.0869179)
(-2.20786e-05 0.000202543 0.088022)
(-8.24088e-06 0.000203408 0.0888999)
(1.32574e-06 0.000205067 0.089629)
(6.8586e-06 0.000207061 0.0902081)
(9.07198e-06 0.000209065 0.0906543)
(8.79881e-06 0.000210889 0.0909928)
(6.77641e-06 0.000212369 0.091241)
(3.63203e-06 0.00021334 0.0914055)
(-1.00006e-07 0.000213742 0.0914897)
(-3.94448e-06 0.000213568 0.0914955)
(-7.44387e-06 0.000212821 0.0914231)
(-1.01064e-05 0.000211534 0.091271)
(-1.13591e-05 0.000209793 0.0910363)
(-1.0525e-05 0.000207818 0.0907113)
(-6.81438e-06 0.000205764 0.0902761)
(6.23024e-07 0.000203897 0.0897051)
(1.25426e-05 0.000202701 0.088981)
(2.9053e-05 0.000202826 0.0881042)
(5.00371e-05 0.000204859 0.0869949)
(7.55217e-05 0.000210207 0.085492)
(0.000112613 0.000221779 0.0835458)
(0.000140082 0.000248013 0.0818239)
(0.000239727 0.000242575 0.0762748)
(8.18317e-05 0.000119215 0.107214)
(0.000309235 -0.000142103 0.0626312)
(0.000122582 -4.29179e-05 0.0834834)
(8.61006e-05 0.000166635 0.0915117)
(4.48187e-05 0.000220605 0.094345)
(3.72769e-05 0.00024312 0.0957744)
(3.91436e-05 0.000256276 0.0967697)
(4.1258e-05 0.000266743 0.0974874)
(4.24384e-05 0.000275903 0.098015)
(4.19212e-05 0.000283753 0.0984113)
(3.93047e-05 0.000290259 0.098707)
(3.46103e-05 0.000295428 0.0989238)
(2.81511e-05 0.000299349 0.099081)
(2.03721e-05 0.00030211 0.099193)
(1.172e-05 0.000303808 0.0992679)
(2.61143e-06 0.000304517 0.0993097)
(-6.55698e-06 0.000304288 0.0993204)
(-1.53807e-05 0.000303126 0.0992998)
(-2.34612e-05 0.000301016 0.0992456)
(-3.03823e-05 0.000297906 0.0991529)
(-3.5715e-05 0.000293742 0.0990119)
(-3.90661e-05 0.00028848 0.098806)
(-4.02022e-05 0.000282165 0.0985136)
(-3.92345e-05 0.000274926 0.0981102)
(-3.66196e-05 0.000267017 0.0975618)
(-3.32705e-05 0.000258481 0.0968062)
(-3.06083e-05 0.000247714 0.0957554)
(-3.81543e-05 0.000227455 0.0942591)
(-8.10116e-05 0.000174517 0.0913646)
(-0.000121077 -3.80278e-05 0.083321)
(-0.000319283 -0.000149535 0.0625741)
(0.000101635 0.000134676 0.0805985)
(0.000119963 0.000168334 0.0898442)
(0.000154092 0.000226229 0.0966061)
(0.00013949 0.000257646 0.0982831)
(0.000119517 0.000275498 0.0988828)
(0.000104048 0.000286743 0.0992598)
(9.14145e-05 0.000295183 0.0995605)
(8.04946e-05 0.000302255 0.0997987)
(7.04929e-05 0.00030827 0.0999822)
(6.0632e-05 0.000313205 0.10012)
(5.04062e-05 0.000317049 0.100221)
(3.96179e-05 0.000319857 0.100293)
(2.82804e-05 0.000321736 0.100345)
(1.65309e-05 0.000322802 0.100381)
(4.56299e-06 0.000323151 0.100404)
(-7.38728e-06 0.00032284 0.100415)
(-1.90958e-05 0.000321896 0.100414)
(-3.03456e-05 0.000320284 0.100397)
(-4.09702e-05 0.000317961 0.100362)
(-5.08916e-05 0.000314868 0.1003)
(-6.01874e-05 0.000310982 0.100201)
(-6.91783e-05 0.000306338 0.100054)
(-7.84635e-05 0.000301073 0.0998482)
(-8.89339e-05 0.00029526 0.0995717)
(-0.000101433 0.000288504 0.0992178)
(-0.000117122 0.000279084 0.0987785)
(-0.000137912 0.000262437 0.0981215)
(-0.000154163 0.000230347 0.0964222)
(-0.000123322 0.000168362 0.0897204)
(-0.000109753 0.000126238 0.080577)
(0.000147793 5.19488e-05 0.0840023)
(0.000152653 0.000147791 0.0939323)
(0.000177165 0.000228744 0.098052)
(0.000168482 0.000254976 0.0991005)
(0.000152819 0.000268957 0.0994628)
(0.000134952 0.000277688 0.0996783)
(0.000117543 0.00028405 0.099862)
(0.000101453 0.000289321 0.100025)
(8.66744e-05 0.000293855 0.100163)
(7.27999e-05 0.000297643 0.100273)
(5.93821e-05 0.000300613 0.100358)
(4.60937e-05 0.000302763 0.10042)
(3.27592e-05 0.000304159 0.100465)
(1.93334e-05 0.00030489 0.100497)
(5.86164e-06 0.000305054 0.100517)
(-7.56507e-06 0.000304715 0.100526)
(-2.08347e-05 0.000303895 0.100525)
(-3.388e-05 0.00030259 0.100509)
(-4.66984e-05 0.000300767 0.100474)
(-5.94065e-05 0.0002984 0.100415)
(-7.22698e-05 0.000295509 0.100324)
(-8.57114e-05 0.000292162 0.100196)
(-0.000100273 0.000288473 0.100028)
(-0.000116405 0.000284401 0.0998235)
(-0.000134128 0.000279427 0.0995921)
(-0.000152565 0.000271868 0.0993326)
(-0.000169031 0.000258265 0.0989446)
(-0.000179051 0.000230605 0.0979095)
(-0.000157226 0.000145167 0.0938648)
(-0.000155527 4.21126e-05 0.0840165)
(0.000140798 8.44173e-05 0.08657)
(0.000172065 0.000156921 0.0959912)
(0.000196808 0.000220304 0.0988605)
(0.000187208 0.000243587 0.09946)
(0.000172067 0.000255489 0.0996638)
(0.000154031 0.00026251 0.0997908)
(0.000135125 0.00026727 0.0999096)
(0.000116729 0.00027096 0.100028)
(9.93246e-05 0.000274038 0.10014)
(8.28667e-05 0.000276597 0.100238)
(6.71204e-05 0.000278601 0.100317)
(5.18361e-05 0.00028003 0.100379)
(3.67985e-05 0.00028091 0.100425)
(2.18813e-05 0.000281308 0.100457)
(7.03349e-06 0.000281298 0.100477)
(-7.74652e-06 0.00028094 0.100485)
(-2.24589e-05 0.000280273 0.100479)
(-3.71223e-05 0.000279301 0.100458)
(-5.18394e-05 0.000278024 0.100417)
(-6.67957e-05 0.000276451 0.100353)
(-8.22738e-05 0.000274614 0.100262)
(-9.86016e-05 0.000272567 0.100143)
(-0.000116052 0.000270325 0.100002)
(-0.000134679 0.000267685 0.0998482)
(-0.000153962 0.000263968 0.0996966)
(-0.000172455 0.00025766 0.0995482)
(-0.000188066 0.000245668 0.099345)
(-0.000198359 0.000220785 0.098779)
(-0.000175319 0.000153651 0.0959802)
(-0.00014565 7.60438e-05 0.0866123)
(0.000145509 8.71735e-05 0.0884122)
(0.000187612 0.000160785 0.097206)
(0.00021179 0.000210417 0.0993447)
(0.000201632 0.000228052 0.0997118)
(0.000186235 0.000237551 0.0998064)
(0.000167957 0.000243152 0.0998643)
(0.000148467 0.000246768 0.099931)
(0.000128958 0.000249343 0.100011)
(0.00011003 0.00025131 0.100096)
(9.18417e-05 0.000252831 0.100178)
(7.43399e-05 0.00025396 0.100251)
(5.73739e-05 0.000254706 0.100311)
(4.07774e-05 0.000255094 0.100356)
(2.44072e-05 0.000255172 0.100389)
(8.1663e-06 0.000255002 0.100408)
(-8.00958e-06 0.000254641 0.100413)
(-2.41743e-05 0.000254127 0.100404)
(-4.04187e-05 0.00025349 0.100378)
(-5.68667e-05 0.000252742 0.100334)
(-7.37071e-05 0.000251905 0.100269)
(-9.11588e-05 0.00025099 0.100184)
(-0.000109397 0.000249991 0.100082)
(-0.00012849 0.000248782 0.0999722)
(-0.000148247 0.000247067 0.0998688)
(-0.00016801 0.000244202 0.0997853)
(-0.000186505 0.000238982 0.0997246)
(-0.000202044 0.000229181 0.0996471)
(-0.000212404 0.000210142 0.0993207)
(-0.000189229 0.00015766 0.0972399)
(-0.000148017 8.06705e-05 0.0884696)
(0.0001508 8.92295e-05 0.0897824)
(0.000201969 0.000156312 0.0979684)
(0.000224612 0.000196007 0.0996487)
(0.000213746 0.000209668 0.0998939)
(0.000197812 0.000217037 0.0999261)
(0.00017924 0.000221414 0.099936)
(0.000159402 0.00022414 0.0999615)
(0.000139284 0.000225901 0.100007)
(0.000119414 0.000227048 0.100066)
(0.000100021 0.000227774 0.10013)
(8.11541e-05 0.000228183 0.100192)
(6.27582e-05 0.00022834 0.100245)
(4.472e-05 0.000228286 0.100288)
(2.69224e-05 0.000228078 0.100319)
(9.26464e-06 0.000227769 0.100337)
(-8.34253e-06 0.000227415 0.10034)
(-2.59859e-05 0.00022706 0.100329)
(-4.37581e-05 0.000226738 0.100302)
(-6.17899e-05 0.000226471 0.100258)
(-8.02205e-05 0.000226259 0.100198)
(-9.91748e-05 0.000226081 0.100125)
(-0.00011872 0.000225843 0.100046)
(-0.000138783 0.000225354 0.0999703)
(-0.000159095 0.000224276 0.0999126)
(-0.00017907 0.000222084 0.0998834)
(-0.000197674 0.000217906 0.0998828)
(-0.000213528 0.000210216 0.0998751)
(-0.000224352 0.00019551 0.0996685)
(-0.000202284 0.000153931 0.0980299)
(-0.00015164 8.49708e-05 0.0898453)
(0.000156883 8.77138e-05 0.0908069)
(0.000215032 0.000147485 0.0984666)
(0.000235816 0.000178762 0.099841)
(0.000224192 0.000189278 0.100019)
(0.00020765 0.000194935 0.10002)
(0.000188734 0.000198269 0.100002)
(0.000168631 0.00020026 0.0999991)
(0.000148116 0.000201384 0.100017)
(0.00012762 0.000201913 0.100053)
(0.000107362 0.000202035 0.100099)
(8.74325e-05 0.000201889 0.100148)
(6.78261e-05 0.000201571 0.100193)
(4.84904e-05 0.000201157 0.100231)
(2.93441e-05 0.000200711 0.100258)
(1.03011e-05 0.000200294 0.100274)
(-8.71568e-06 0.000199961 0.100276)
(-2.77845e-05 0.000199758 0.100265)
(-4.69935e-05 0.000199718 0.100239)
(-6.6428e-05 0.00019985 0.1002)
(-8.61733e-05 0.000200139 0.100149)
(-0.000106284 0.000200512 0.100091)
(-0.000126738 0.000200828 0.100036)
(-0.000147422 0.000200857 0.0999914)
(-0.000168073 0.000200281 0.0999698)
(-0.000188222 0.000198692 0.0999778)
(-0.000207071 0.000195498 0.100011)
(-0.00022346 0.000189627 0.100035)
(-0.000234974 0.00017846 0.0998885)
(-0.000214566 0.000146145 0.0985406)
(-0.000156724 8.5453e-05 0.0908679)
(0.000163794 8.28549e-05 0.0915966)
(0.000226921 0.000134959 0.0988029)
(0.000245761 0.000159469 0.0999613)
(0.000233279 0.00016744 0.1001)
(0.000216092 0.000171674 0.100087)
(0.000196796 0.000174108 0.100056)
(0.000176439 0.000175462 0.100036)
(0.000155627 0.000176071 0.100035)
(0.000134683 0.000176135 0.100053)
(0.000113785 0.000175823 0.100083)
(9.30168e-05 0.000175277 0.100119)
(7.24085e-05 0.000174619 0.100155)
(5.19386e-05 0.000173944 0.100186)
(3.1566e-05 0.000173331 0.10021)
(1.12419e-05 0.000172845 0.100223)
(-9.08735e-06 0.000172545 0.100224)
(-2.94737e-05 0.000172474 0.100214)
(-4.99642e-05 0.000172658 0.100191)
(-7.0605e-05 0.000173096 0.100159)
(-9.1426e-05 0.000173743 0.100119)
(-0.000112423 0.000174501 0.100078)
(-0.000133545 0.000175201 0.100043)
(-0.00015467 0.000175614 0.100024)
(-0.000175593 0.000175466 0.100027)
(-0.000195967 0.000174456 0.100056)
(-0.000215189 0.000172186 0.100104)
(-0.000232244 0.000167893 0.100139)
(-0.00024464 0.000159631 0.100023)
(-0.000226106 0.000134665 0.0988782)
(-0.000163116 8.21464e-05 0.0916499)
(0.000170635 7.4973e-05 0.0922106)
(0.000237486 0.000119377 0.0990358)
(0.000254491 0.00013841 0.100035)
(0.000241159 0.000144328 0.100148)
(0.000223316 0.000147389 0.10013)
(0.000203614 0.000149052 0.100094)
(0.000183001 0.000149873 0.100066)
(0.000161935 0.000150071 0.100054)
(0.000140644 0.000149802 0.100059)
(0.00011925 0.0001492 0.100077)
(9.78214e-05 0.000148407 0.100102)
(7.63863e-05 0.000147543 0.100129)
(5.49535e-05 0.000146716 0.100153)
(3.35156e-05 0.000146013 0.100172)
(1.20564e-05 0.000145504 0.100183)
(-9.43772e-06 0.000145246 0.100184)
(-3.09788e-05 0.000145278 0.100176)
(-5.25754e-05 0.000145621 0.100158)
(-7.42265e-05 0.000146257 0.100132)
(-9.59168e-05 0.00014713 0.100104)
(-0.000117612 0.000148123 0.100077)
(-0.000139249 0.00014907 0.100059)
(-0.000160733 0.000149762 0.100056)
(-0.000181919 0.000149977 0.100074)
(-0.000202572 0.000149495 0.100113)
(-0.000222243 0.000148053 0.100164)
(-0.000240018 0.000145089 0.100199)
(-0.000253331 0.000139143 0.100101)
(-0.000236594 0.000120002 0.0991063)
(-0.000169808 7.53738e-05 0.0922553)
(0.000176846 6.47049e-05 0.0926766)
(0.000246522 0.000101319 0.0991967)
(0.000261939 0.000115804 0.100078)
(0.000247827 0.00012006 0.100173)
(0.000229393 0.000122144 0.100154)
(0.000209307 0.000123186 0.100117)
(0.000188442 0.00012357 0.100087)
(0.000167144 0.000123462 0.10007)
(0.000145565 0.000122969 0.100067)
(0.000123775 0.000122208 0.100076)
(0.000101813 0.000121297 0.100092)
(7.97077e-05 0.000120352 0.100111)
(5.74786e-05 0.000119479 0.10013)
(3.51441e-05 0.000118762 0.100145)
(1.27258e-05 0.000118272 0.100153)
(-9.7549e-06 0.000118063 0.100155)
(-3.22702e-05 0.000118171 0.100148)
(-5.47865e-05 0.000118604 0.100135)
(-7.72638e-05 0.000119342 0.100117)
(-9.96564e-05 0.000120318 0.100098)
(-0.000121911 0.000121423 0.100082)
(-0.00014397 0.000122503 0.100076)
(-0.000165768 0.000123383 0.100083)
(-0.000187221 0.000123886 0.100108)
(-0.000208174 0.000123854 0.100149)
(-0.000228293 0.000123099 0.100198)
(-0.000246732 0.000121227 0.10023)
(-0.000260883 0.000117109 0.100144)
(-0.000245711 0.000102677 0.0992602)
(-0.000176056 6.58343e-05 0.0927146)
(0.000182106 5.25849e-05 0.0930202)
(0.000253899 8.12867e-05 0.0993057)
(0.000268036 9.18799e-05 0.100101)
(0.000253272 9.47733e-05 0.100183)
(0.000234338 9.60647e-05 0.100164)
(0.000213921 9.65965e-05 0.100129)
(0.000192827 9.66427e-05 0.100099)
(0.000171323 9.63174e-05 0.10008)
(0.0001495 9.57033e-05 0.100073)
(0.000127388 9.48887e-05 0.100076)
(0.000105001 9.39721e-05 0.100086)
(8.23581e-05 9.30534e-05 0.1001)
(5.94891e-05 9.22232e-05 0.100114)
(3.64336e-05 9.15605e-05 0.100125)
(1.32382e-05 9.11285e-05 0.100132)
(-1.00403e-05 9.09741e-05 0.100133)
(-3.33398e-05 9.11272e-05 0.100129)
(-5.65925e-05 9.1593e-05 0.100119)
(-7.97284e-05 9.23474e-05 0.100107)
(-0.000102679 9.33299e-05 0.100096)
(-0.000125383 9.44437e-05 0.100088)
(-0.000147791 9.55621e-05 0.100089)
(-0.000169867 9.65441e-05 0.100102)
(-0.000191568 9.72557e-05 0.100129)
(-0.000212804 9.75786e-05 0.100168)
(-0.000233315 9.73775e-05 0.100212)
(-0.000252312 9.63684e-05 0.10024)
(-0.000267158 9.36933e-05 0.100163)
(-0.000253247 8.31938e-05 0.0993622)
(-0.000181438 5.41734e-05 0.093053)
(0.000186223 3.90938e-05 0.0932615)
(0.00025954 5.97428e-05 0.0993765)
(0.000272716 6.68861e-05 0.100112)
(0.000257455 6.863e-05 0.100185)
(0.00023814 6.9274e-05 0.100165)
(0.000217461 6.93992e-05 0.100133)
(0.000196179 6.9194e-05 0.100104)
(0.000174503 6.87353e-05 0.100085)
(0.000152481 6.80838e-05 0.100077)
(0.000130113 6.73043e-05 0.100077)
(0.000107395 6.64725e-05 0.100083)
(8.434e-05 6.56636e-05 0.100092)
(6.09823e-05 6.49511e-05 0.100103)
(3.73751e-05 6.43968e-05 0.100111)
(1.35881e-05 6.40521e-05 0.100117)
(-1.0298e-05 6.3956e-05 0.100118)
(-3.41933e-05 6.41306e-05 0.100115)
(-5.80045e-05 6.45806e-05 0.100109)
(-8.16392e-05 6.52846e-05 0.100102)
(-0.000105016 6.61954e-05 0.100095)
(-0.000128068 6.7237e-05 0.100093)
(-0.000150756 6.83143e-05 0.100098)
(-0.000173062 6.93219e-05 0.100113)
(-0.000194974 7.01605e-05 0.100139)
(-0.000216442 7.07417e-05 0.100175)
(-0.00023726 7.09675e-05 0.100215)
(-0.000256677 7.06332e-05 0.100241)
(-0.000272046 6.91281e-05 0.10017)
(-0.000259074 6.20509e-05 0.0994273)
(-0.000185704 4.09642e-05 0.0932905)
(0.000189081 2.4656e-05 0.0934145)
(0.000263394 3.71342e-05 0.0994185)
(0.000275933 4.11043e-05 0.100116)
(0.000260337 4.18462e-05 0.100182)
(0.000240767 4.19435e-05 0.100163)
(0.000219908 4.17433e-05 0.100132)
(0.000198488 4.13556e-05 0.100105)
(0.000176683 4.08312e-05 0.100087)
(0.000154512 4.02088e-05 0.100078)
(0.000131957 3.95332e-05 0.100076)
(0.000109002 3.88524e-05 0.10008)
(8.56565e-05 3.82175e-05 0.100087)
(6.19574e-05 3.76756e-05 0.100095)
(3.79679e-05 3.72696e-05 0.100102)
(1.37716e-05 3.70345e-05 0.100107)
(-1.05329e-05 3.69976e-05 0.100108)
(-3.48379e-05 3.7176e-05 0.100106)
(-5.90326e-05 3.75736e-05 0.100102)
(-8.3012e-05 3.81784e-05 0.100098)
(-0.000106684 3.89591e-05 0.100094)
(-0.000129983 3.98679e-05 0.100095)
(-0.000152872 4.08411e-05 0.100102)
(-0.000175347 4.18098e-05 0.100117)
(-0.000197412 4.27047e-05 0.100142)
(-0.000219044 4.34627e-05 0.100176)
(-0.000240068 4.40134e-05 0.100213)
(-0.000259762 4.42225e-05 0.100236)
(-0.000275473 4.37043e-05 0.10017)
(-0.000263118 3.9741e-05 0.0994651)
(-0.000188707 2.67062e-05 0.0934411)
(0.000190603 9.65053e-06 0.0934883)
(0.000265426 1.38822e-05 0.0994371)
(0.000277649 1.48366e-05 0.100116)
(0.000261884 1.46628e-05 0.100179)
(0.000242183 1.42785e-05 0.10016)
(0.000221228 1.38041e-05 0.10013)
(0.00019973 1.32828e-05 0.100104)
(0.000177846 1.2738e-05 0.100086)
(0.000155584 1.21917e-05 0.100077)
(0.000132915 1.16647e-05 0.100074)
(0.00010982 1.11797e-05 0.100077)
(8.63069e-05 1.07585e-05 0.100083)
(6.2414e-05 1.04217e-05 0.10009)
(3.82105e-05 1.01884e-05 0.100096)
(1.37873e-05 1.00759e-05 0.1001)
(-1.07476e-05 1.00985e-05 0.100102)
(-3.52773e-05 1.0268e-05 0.1001)
(-5.96826e-05 1.05896e-05 0.100097)
(-8.38509e-05 1.10623e-05 0.100094)
(-0.000107687 1.16756e-05 0.100092)
(-0.000131124 1.24095e-05 0.100094)
(-0.000154127 1.32358e-05 0.100101)
(-0.000176696 1.4119e-05 0.100117)
(-0.000198847 1.50199e-05 0.100141)
(-0.000220564 1.58978e-05 0.100174)
(-0.000241691 1.67075e-05 0.100209)
(-0.000261519 1.73804e-05 0.100231)
(-0.000277397 1.77451e-05 0.100168)
(-0.000265332 1.67278e-05 0.0994815)
(-0.000190361 1.1832e-05 0.0935137)
(0.000190747 -5.56561e-06 0.0934872)
(0.000265609 -9.6042e-06 0.0994352)
(0.000277841 -1.16085e-05 0.100114)
(0.000262072 -1.26634e-05 0.100177)
(0.000242364 -1.35022e-05 0.100157)
(0.000221397 -1.42255e-05 0.100127)
(0.000199882 -1.48577e-05 0.100101)
(0.000177974 -1.53992e-05 0.100083)
(0.000155682 -1.58478e-05 0.100074)
(0.000132978 -1.62043e-05 0.100071)
(0.000109843 -1.64737e-05 0.100074)
(8.62875e-05 -1.66638e-05 0.10008)
(6.23507e-05 -1.67815e-05 0.100087)
(3.81025e-05 -1.68324e-05 0.100093)
(1.36355e-05 -1.68184e-05 0.100097)
(-1.09415e-05 -1.67372e-05 0.100099)
(-3.55106e-05 -1.65839e-05 0.100097)
(-5.99522e-05 -1.63498e-05 0.100094)
(-8.41536e-05 -1.60249e-05 0.10009)
(-0.000108019 -1.55982e-05 0.100088)
(-0.00013148 -1.50593e-05 0.10009)
(-0.000154504 -1.44021e-05 0.100097)
(-0.000177089 -1.36277e-05 0.100113)
(-0.000199251 -1.27454e-05 0.100137)
(-0.000220974 -1.17743e-05 0.100169)
(-0.000242101 -1.07331e-05 0.100205)
(-0.000261925 -9.62802e-06 0.100228)
(-0.000277793 -8.41541e-06 0.100165)
(-0.000265698 -6.54083e-06 0.0994793)
(-0.000190632 -3.26094e-06 0.0935127)
(0.000189506 -2.06366e-05 0.0934115)
(0.000263935 -3.2917e-05 0.0994129)
(0.000276498 -3.79185e-05 0.100109)
(0.00026089 -3.98708e-05 0.100175)
(0.000241299 -4.11725e-05 0.100155)
(0.000220405 -4.21491e-05 0.100124)
(0.000198933 -4.28945e-05 0.100097)
(0.000177057 -4.34349e-05 0.100078)
(0.000154797 -4.37877e-05 0.100069)
(0.000132137 -4.39771e-05 0.100067)
(0.000109066 -4.40357e-05 0.100071)
(8.55949e-05 -4.40001e-05 0.100079)
(6.17655e-05 -4.3905e-05 0.100087)
(3.76442e-05 -4.37793e-05 0.100094)
(1.33184e-05 -4.36428e-05 0.100098)
(-1.11104e-05 -4.35064e-05 0.100099)
(-3.55326e-05 -4.337e-05 0.100097)
(-5.98353e-05 -4.32235e-05 0.100092)
(-8.39124e-05 -4.30457e-05 0.100087)
(-0.000107672 -4.28042e-05 0.100083)
(-0.000131045 -4.24598e-05 0.100083)
(-0.000153996 -4.19712e-05 0.10009)
(-0.000176518 -4.13035e-05 0.100105)
(-0.000198617 -4.0438e-05 0.10013)
(-0.000220267 -3.93664e-05 0.100164)
(-0.000241293 -3.80843e-05 0.100201)
(-0.000260978 -3.65274e-05 0.100226)
(-0.000276663 -3.44401e-05 0.100161)
(-0.000264216 -2.96206e-05 0.0994582)
(-0.000189518 -1.81827e-05 0.093438)
(0.000186908 -3.51966e-05 0.0932566)
(0.000260412 -5.56421e-05 0.0993677)
(0.000273626 -6.3782e-05 0.100102)
(0.000258344 -6.67016e-05 0.100173)
(0.000238994 -6.85125e-05 0.100152)
(0.000218257 -6.97761e-05 0.100119)
(0.000196887 -7.06622e-05 0.10009)
(0.000175094 -7.12285e-05 0.100071)
(0.000152927 -7.1512e-05 0.100062)
(0.000130389 -7.15623e-05 0.100062)
(0.000107483 -7.14392e-05 0.100069)
(8.42252e-05 -7.12067e-05 0.100079)
(6.06567e-05 -7.09251e-05 0.100089)
(3.68371e-05 -7.06433e-05 0.100098)
(1.28403e-05 -7.0398e-05 0.100103)
(-1.12476e-05 -7.02101e-05 0.100104)
(-3.53329e-05 -7.00862e-05 0.1001)
(-5.93205e-05 -7.00147e-05 0.100093)
(-8.31156e-05 -6.99658e-05 0.100085)
(-0.000106634 -6.9889e-05 0.100077)
(-0.000129811 -6.97166e-05 0.100074)
(-0.000152601 -6.93735e-05 0.100078)
(-0.000174989 -6.87888e-05 0.100093)
(-0.000196959 -6.79088e-05 0.100119)
(-0.000218461 -6.67027e-05 0.100155)
(-0.000239288 -6.51278e-05 0.100196)
(-0.000258694 -6.3055e-05 0.100223)
(-0.000274024 -5.99953e-05 0.100154)
(-0.000260902 -5.20689e-05 0.0994155)
(-0.000187055 -3.25433e-05 0.0932852)
(0.000183021 -4.88544e-05 0.0930138)
(0.000255064 -7.73487e-05 0.0992939)
(0.000269247 -8.88909e-05 0.100087)
(0.000254451 -9.29113e-05 0.100167)
(0.000235465 -9.53184e-05 0.100146)
(0.000214966 -9.69324e-05 0.100109)
(0.000193751 -9.80127e-05 0.100079)
(0.000172087 -9.86524e-05 0.10006)
(0.000150068 -9.89169e-05 0.100053)
(0.000127727 -9.88796e-05 0.100056)
(0.000105086 -9.86279e-05 0.100067)
(8.21728e-05 -9.8251e-05 0.100081)
(5.90234e-05 -9.78285e-05 0.100096)
(3.56834e-05 -9.7427e-05 0.100107)
(1.22083e-05 -9.70937e-05 0.100113)
(-1.13409e-05 -9.68601e-05 0.100114)
(-3.48973e-05 -9.67367e-05 0.100108)
(-5.83887e-05 -9.67153e-05 0.100097)
(-8.17431e-05 -9.6759e-05 0.100084)
(-0.000104889 -9.68051e-05 0.100071)
(-0.000127763 -9.6762e-05 0.100062)
(-0.000150317 -9.65207e-05 0.100062)
(-0.000172508 -9.5974e-05 0.100074)
(-0.000194297 -9.50316e-05 0.1001)
(-0.000215586 -9.36251e-05 0.100139)
(-0.000236118 -9.1677e-05 0.100185)
(-0.000255109 -8.89658e-05 0.100215)
(-0.000269908 -8.47654e-05 0.100141)
(-0.000255789 -7.34281e-05 0.0993452)
(-0.000183317 -4.59208e-05 0.0930453)
(0.000177956 -6.11703e-05 0.0926691)
(0.00024793 -9.75762e-05 0.0991825)
(0.000263397 -0.000112954 0.10006)
(0.000249239 -0.000118281 0.100153)
(0.000230734 -0.00012142 0.10013)
(0.00021054 -0.000123475 0.100092)
(0.000189523 -0.000124821 0.100061)
(0.000168025 -0.000125603 0.100044)
(0.000146202 -0.000125916 0.100041)
(0.000124134 -0.000125865 0.100051)
(0.000101865 -0.000125562 0.100068)
(7.94325e-05 -0.000125115 0.100088)
(5.68652e-05 -0.000124619 0.100107)
(3.41902e-05 -0.000124147 0.100122)
(1.14334e-05 -0.000123756 0.10013)
(-1.13754e-05 -0.000123481 0.10013)
(-3.42038e-05 -0.000123341 0.100122)
(-5.70142e-05 -0.000123329 0.100107)
(-7.97619e-05 -0.000123411 0.100087)
(-0.000102399 -0.000123517 0.100066)
(-0.000124869 -0.000123538 0.100049)
(-0.000147111 -0.000123338 0.100041)
(-0.000169063 -0.000122771 0.100048)
(-0.000190632 -0.000121703 0.100072)
(-0.000211666 -0.000120021 0.100112)
(-0.000231825 -0.000117586 0.100162)
(-0.000250269 -0.000114068 0.100197)
(-0.000264371 -0.000108464 0.100114)
(-0.000248933 -9.32195e-05 0.0992377)
(-0.000178435 -5.78246e-05 0.0927043)
(0.000171905 -7.16393e-05 0.0922023)
(0.000239086 -0.000115841 0.0990198)
(0.000256135 -0.000135715 0.100014)
(0.00024274 -0.00014265 0.100123)
(0.000224806 -0.000146697 0.100102)
(0.000204971 -0.000149298 0.100063)
(0.000184173 -0.000150994 0.100034)
(0.000162869 -0.000151995 0.100023)
(0.000141297 -0.000152444 0.100028)
(0.000119582 -0.000152475 0.100047)
(9.78053e-05 -0.000152221 0.100073)
(7.60034e-05 -0.000151803 0.100102)
(5.41925e-05 -0.000151316 0.100127)
(3.23714e-05 -0.000150838 0.100146)
(1.05331e-05 -0.000150424 0.100156)
(-1.13327e-05 -0.000150114 0.100156)
(-3.32321e-05 -0.000149932 0.100145)
(-5.5167e-05 -0.000149878 0.100125)
(-7.71333e-05 -0.000149923 0.100098)
(-9.91098e-05 -0.000150002 0.100067)
(-0.000121061 -0.00015 0.100038)
(-0.000142921 -0.000149763 0.100018)
(-0.000164592 -0.000149108 0.100014)
(-0.000185931 -0.000147852 0.100031)
(-0.000206693 -0.000145817 0.100069)
(-0.000226433 -0.00014278 0.100122)
(-0.000244235 -0.000138244 0.100159)
(-0.000257502 -0.000130871 0.100065)
(-0.000240442 -0.000110956 0.0990779)
(-0.000172645 -6.76876e-05 0.092242)
(0.000165189 -7.9694e-05 0.0915881)
(0.000228663 -0.000131627 0.0987854)
(0.000247535 -0.000156949 0.0999362)
(0.000234977 -0.000165886 0.10007)
(0.000217673 -0.000171041 0.100053)
(0.000198213 -0.000174322 0.100019)
(0.000177639 -0.000176456 0.0999986)
(0.000156555 -0.000177766 0.0999988)
(0.000135295 -0.000178452 0.100018)
(0.000114048 -0.000178682 0.10005)
(9.2906e-05 -0.000178602 0.100088)
(7.19067e-05 -0.000178328 0.100125)
(5.10366e-05 -0.000177952 0.100157)
(3.026e-05 -0.000177539 0.10018)
(9.53102e-06 -0.000177143 0.100193)
(-1.11974e-05 -0.000176804 0.100193)
(-3.19709e-05 -0.00017655 0.10018)
(-5.28341e-05 -0.000176391 0.100155)
(-7.38242e-05 -0.00017631 0.10012)
(-9.49666e-05 -0.000176252 0.100077)
(-0.000116254 -0.000176116 0.100034)
(-0.000137632 -0.00017574 0.0999966)
(-0.00015898 -0.000174923 0.0999752)
(-0.000180086 -0.000173418 0.0999772)
(-0.000200607 -0.000170967 0.100006)
(-0.000219931 -0.000167206 0.100055)
(-0.000237046 -0.00016143 0.100091)
(-0.000249416 -0.000151823 0.0999794)
(-0.000230508 -0.000126146 0.0988439)
(-0.000166359 -7.48835e-05 0.0916327)
(0.000158399 -8.46635e-05 0.090798)
(0.000216889 -0.000144356 0.0984474)
(0.000237691 -0.00017644 0.0998115)
(0.000225962 -0.00018789 0.0999833)
(0.000209271 -0.000194388 0.0999798)
(0.000190157 -0.000198475 0.0999596)
(0.000169795 -0.000201135 0.0999566)
(0.000148978 -0.000202847 0.0999764)
(0.000128143 -0.000203892 0.100015)
(0.000107518 -0.000204462 0.100063)
(8.72059e-05 -0.000204699 0.100114)
(6.72052e-05 -0.000204704 0.100162)
(4.7467e-05 -0.000204542 0.1002)
(2.79131e-05 -0.00020427 0.100228)
(8.46094e-06 -0.000203934 0.100242)
(-1.09643e-05 -0.000203573 0.100242)
(-3.04385e-05 -0.00020322 0.100228)
(-5.00384e-05 -0.000202889 0.1002)
(-6.98471e-05 -0.000202581 0.100157)
(-8.9943e-05 -0.00020226 0.100103)
(-0.00011037 -0.000201849 0.100043)
(-0.000131112 -0.000201214 0.0999846)
(-0.000152045 -0.000200136 0.0999384)
(-0.000172911 -0.000198334 0.0999154)
(-0.00019324 -0.000195427 0.0999226)
(-0.00021223 -0.000190856 0.0999561)
(-0.000228717 -0.00018361 0.0999816)
(-0.000240232 -0.000171199 0.0998387)
(-0.000219417 -0.000138275 0.0985009)
(-0.00016028 -7.87284e-05 0.0908468)
(0.000152471 -8.62113e-05 0.089773)
(0.000203961 -0.000153391 0.0979469)
(0.000226568 -0.00019394 0.0996138)
(0.000215557 -0.000208485 0.099851)
(0.000199428 -0.000216616 0.099879)
(0.000180603 -0.00022163 0.0998878)
(0.000160475 -0.000224904 0.0999147)
(0.000140024 -0.000227133 0.0999629)
(0.000119799 -0.000228684 0.100026)
(0.000100043 -0.000229759 0.100093)
(8.08012e-05 -0.000230474 0.100158)
(6.20273e-05 -0.000230889 0.100214)
(4.36061e-05 -0.000231044 0.100257)
(2.54188e-05 -0.000230979 0.100287)
(7.36445e-06 -0.000230739 0.100303)
(-1.06465e-05 -0.000230366 0.100305)
(-2.86916e-05 -0.00022989 0.100291)
(-4.68667e-05 -0.000229333 0.100261)
(-6.52877e-05 -0.000228698 0.100213)
(-8.40847e-05 -0.000227979 0.10015)
(-0.000103385 -0.000227136 0.100074)
(-0.000123236 -0.000226077 0.0999914)
(-0.000143574 -0.000224622 0.099914)
(-0.000164126 -0.000222454 0.0998547)
(-0.000184303 -0.000219078 0.0998245)
(-0.000203082 -0.00021365 0.0998237)
(-0.000219074 -0.000204697 0.099817)
(-0.000229925 -0.000188871 0.0996141)
(-0.000207413 -0.000146808 0.0979866)
(-0.000155393 -7.89112e-05 0.0898215)
(0.000147412 -8.41586e-05 0.088402)
(0.000189748 -0.000158131 0.0971808)
(0.000213802 -0.000208661 0.0993028)
(0.000203437 -0.000227134 0.0996613)
(0.000187776 -0.000237285 0.0997529)
(0.000169206 -0.000243399 0.0998117)
(0.000149381 -0.000247426 0.0998818)
(0.000129528 -0.000250345 0.0999662)
(0.000110251 -0.0002526 0.100056)
(9.17126e-05 -0.000254379 0.100143)
(7.38689e-05 -0.000255737 0.100218)
(5.6561e-05 -0.000256685 0.10028)
(3.9618e-05 -0.000257236 0.100326)
(2.28936e-05 -0.00025743 0.100357)
(6.2843e-06 -0.000257315 0.100374)
(-1.0269e-05 -0.000256937 0.100377)
(-2.68278e-05 -0.00025633 0.100365)
(-4.34659e-05 -0.000255503 0.100336)
(-6.03065e-05 -0.000254466 0.100288)
(-7.75307e-05 -0.000253216 0.100219)
(-9.53361e-05 -0.000251762 0.10013)
(-0.000113907 -0.000250077 0.100026)
(-0.000133291 -0.000248051 0.0999139)
(-0.000153304 -0.000245395 0.0998089)
(-0.000173294 -0.00024149 0.0997245)
(-0.00019198 -0.000235154 0.0996634)
(-0.000207683 -0.000224218 0.0995868)
(-0.00021808 -0.000204181 0.0992639)
(-0.000194427 -0.000151383 0.097195)
(-0.0001518 -7.53833e-05 0.0884437)
(0.000142952 -8.14745e-05 0.0865576)
(0.000174295 -0.000154633 0.0959607)
(0.000198803 -0.00021894 0.0988107)
(0.000188904 -0.000242992 0.0994025)
(0.000173459 -0.000255401 0.0996058)
(0.000155072 -0.000262793 0.0997364)
(0.000135827 -0.000267818 0.0998611)
(0.000117091 -0.000271719 0.0999863)
(9.93615e-05 -0.000274985 0.100104)
(8.25984e-05 -0.000277717 0.100205)
(6.65599e-05 -0.000279888 0.100288)
(5.09877e-05 -0.000281468 0.100351)
(3.56573e-05 -0.000282474 0.100396)
(2.04332e-05 -0.000282958 0.100427)
(5.26379e-06 -0.000282988 0.100444)
(-9.86514e-06 -0.000282619 0.100449)
(-2.49369e-05 -0.000281872 0.10044)
(-3.99797e-05 -0.000280758 0.100415)
(-5.50819e-05 -0.000279254 0.10037)
(-7.04168e-05 -0.000277367 0.100302)
(-8.62676e-05 -0.000275104 0.100208)
(-0.000102932 -0.000272518 0.100086)
(-0.000120695 -0.000269608 0.0999428)
(-0.000139592 -0.000266184 0.0997878)
(-0.000159103 -0.000261585 0.0996354)
(-0.000177807 -0.000254302 0.099487)
(-0.000193574 -0.000241305 0.0992848)
(-0.000203912 -0.00021556 0.0987226)
(-0.000180346 -0.000148265 0.0959362)
(-0.000149274 -7.16635e-05 0.0865846)
(0.000150281 -4.907e-05 0.0839858)
(0.00015485 -0.000145961 0.0938958)
(0.000178981 -0.000227898 0.0979955)
(0.000169924 -0.000254728 0.0990389)
(0.000153895 -0.000269065 0.0994045)
(0.000135689 -0.000277975 0.0996271)
(0.000117954 -0.00028446 0.0998188)
(0.00010157 -0.000289821 0.0999892)
(8.65302e-05 -0.000294454 0.100132)
(7.24219e-05 -0.000298355 0.100246)
(5.8787e-05 -0.000301445 0.100332)
(4.52818e-05 -0.000303709 0.100395)
(3.17207e-05 -0.000305197 0.100439)
(1.80493e-05 -0.000305996 0.100468)
(4.30091e-06 -0.000306188 0.100486)
(-9.41847e-06 -0.000305832 0.100492)
(-2.30155e-05 -0.000304957 0.100486)
(-3.64051e-05 -0.000303539 0.100467)
(-4.95838e-05 -0.000301552 0.100428)
(-6.26647e-05 -0.000298951 0.100365)
(-7.58899e-05 -0.000295752 0.100271)
(-8.96865e-05 -0.000291996 0.10014)
(-0.000104558 -0.000287797 0.0999699)
(-0.000120966 -0.000283109 0.0997639)
(-0.00013893 -0.000277402 0.0995322)
(-0.000157537 -0.000269046 0.0992732)
(-0.000174162 -0.000254579 0.0988871)
(-0.000184148 -0.000226209 0.0978571)
(-0.000161804 -0.000140656 0.0938252)