/*--------------------------------*- C++ -*----------------------------------*\
| =========                 |                                                 |
| \\      /  F ield         | OpenFOAM: The Open Source CFD Toolbox           |
|  \\    /   O peration     | Version:  2312                                  |
|   \\  /    A nd           | Website:  www.openfoam.com                      |
|    \\/     M anipulation  |                                                 |
\*---------------------------------------------------------------------------*/
FoamFile
{
    version     2.0;
    format      ascii;
    arch        "LSB;label=32;scalar=64";
    class       volScalarField;
    location    "150";
    object      alphat;
}
// * * * * * * * * * * * * * * * * * * * * * * * * * * * * * * * * * * * * * //

dimensions      [1 -1 -1 0 0 0 0];

internalField   nonuniform List<scalar> 
27000
(
0.00395846
0.00671745
0.0093719
0.0117419
0.0140437
0.016193
0.0181453
0.019795
0.0212148
0.0224279
0.0234262
0.0242213
0.0248168
0.0252147
0.0254161
0.0254216
0.0252312
0.0248443
0.0242593
0.023472
0.0224705
0.02126
0.0198411
0.0181887
0.0162292
0.0140674
0.0117487
0.00936187
0.00669962
0.00394754
0.00575786
0.00127714
0.00516113
0.00908995
0.0131721
0.0170286
0.0206669
0.0240575
0.0271442
0.0299024
0.0323099
0.0343136
0.0358593
0.0369083
0.0374362
0.0374302
0.0368901
0.0358294
0.0342759
0.0322761
0.029887
0.0271293
0.0240365
0.0206374
0.016992
0.0131387
0.00908116
0.00515809
0.00127086
0.00574581
0.00923038
0.0071667
0.0145536
0.0263057
0.0370497
0.0462704
0.0546669
0.0626046
0.0699226
0.0764369
0.0820413
0.0866454
0.0901625
0.0925334
0.093727
0.0937248
0.0925239
0.0901484
0.0866493
0.0821015
0.0765722
0.0701056
0.0627934
0.0547832
0.046233
0.0368863
0.0262432
0.0146138
0.00710276
0.00922768
0.0121565
0.0108497
0.0261053
0.0530484
0.0788728
0.0967291
0.109868
0.1207
0.129977
0.137796
0.144255
0.149409
0.153262
0.155826
0.157115
0.157137
0.155894
0.153391
0.149633
0.144603
0.138243
0.130462
0.121059
0.109844
0.0961716
0.0780561
0.052729
0.026171
0.0108109
0.0121678
0.0149166
0.0144684
0.0368613
0.0764619
0.113888
0.139639
0.156179
0.167728
0.176604
0.183175
0.188201
0.19215
0.195053
0.196961
0.197922
0.197956
0.197061
0.195226
0.19241
0.188516
0.183386
0.176816
0.167766
0.15568
0.138674
0.112966
0.0762535
0.036955
0.0144339
0.0149414
0.0174741
0.0183863
0.0475886
0.0952197
0.138023
0.167417
0.185551
0.196808
0.204261
0.209374
0.212978
0.215581
0.217416
0.218595
0.219184
0.21921
0.218672
0.217545
0.215758
0.213168
0.209509
0.204287
0.196588
0.185032
0.16694
0.1377
0.095386
0.0477624
0.0183603
0.0175067
0.0198047
0.0225222
0.0584307
0.111345
0.155712
0.185142
0.202883
0.213212
0.219331
0.223083
0.225465
0.227024
0.228046
0.228673
0.228979
0.228992
0.228713
0.228111
0.227108
0.225545
0.223118
0.21927
0.213009
0.20259
0.18495
0.155791
0.111684
0.0585502
0.0224931
0.0198402
0.0218857
0.026725
0.0690128
0.125438
0.16973
0.197292
0.213343
0.222243
0.227088
0.229735
0.231205
0.232042
0.232526
0.232797
0.232921
0.232924
0.232808
0.232545
0.232066
0.231223
0.229727
0.227034
0.222142
0.213252
0.197312
0.16988
0.125734
0.0690667
0.0266899
0.0219279
0.0237001
0.0308593
0.0789056
0.137565
0.180896
0.206008
0.219955
0.22728
0.230958
0.232734
0.233558
0.233926
0.234083
0.234146
0.234167
0.234166
0.234143
0.23408
0.233923
0.233552
0.232719
0.230932
0.227254
0.219962
0.206073
0.18094
0.137757
0.0789162
0.0308256
0.0237371
0.0252568
0.0347603
0.0878637
0.147719
0.188775
0.212072
0.2242
0.230137
0.232846
0.233964
0.234349
0.234427
0.2344
0.234354
0.234324
0.234321
0.234346
0.234389
0.234415
0.234336
0.233951
0.232837
0.230146
0.224248
0.212179
0.188934
0.147865
0.0878742
0.034736
0.0252861
0.0265552
0.0382737
0.0956971
0.156228
0.195346
0.216539
0.227021
0.231801
0.233752
0.234396
0.234494
0.234404
0.234282
0.234185
0.234133
0.23413
0.234177
0.23427
0.23439
0.23448
0.234383
0.233748
0.231816
0.227071
0.216638
0.195477
0.156317
0.0957047
0.0382572
0.0265769
0.0275939
0.0412616
0.10219
0.163028
0.200474
0.219842
0.228939
0.232799
0.234184
0.234499
0.234417
0.234236
0.234072
0.233958
0.233901
0.233899
0.233951
0.234061
0.234223
0.234403
0.234486
0.234176
0.232806
0.228971
0.219903
0.200546
0.163059
0.102183
0.0412496
0.0276093
0.0283728
0.0436071
0.107174
0.168131
0.204211
0.222168
0.230217
0.233402
0.234388
0.234488
0.2343
0.234074
0.233895
0.23378
0.233725
0.233723
0.233775
0.233886
0.234063
0.234287
0.234474
0.234377
0.233398
0.230227
0.222191
0.204228
0.168092
0.107152
0.0435978
0.0283834
0.0288918
0.0452208
0.110543
0.171531
0.206643
0.223643
0.230998
0.233745
0.234482
0.234454
0.234208
0.233962
0.233781
0.23367
0.233618
0.233617
0.233666
0.233774
0.233953
0.234197
0.234441
0.234469
0.233736
0.230995
0.223645
0.206636
0.171487
0.110519
0.0452135
0.0288991
0.0291511
0.0460421
0.112237
0.173224
0.207837
0.224357
0.231368
0.233901
0.234519
0.234431
0.23416
0.233908
0.233727
0.23362
0.23357
0.233569
0.233617
0.233723
0.233901
0.234151
0.23442
0.234507
0.233891
0.231361
0.224351
0.207824
0.173188
0.112217
0.046036
0.0291563
0.0291505
0.0460413
0.112235
0.173224
0.207836
0.224356
0.231368
0.233902
0.23452
0.234431
0.234161
0.233908
0.233728
0.23362
0.233571
0.23357
0.233618
0.233724
0.233903
0.234154
0.234423
0.23451
0.233893
0.231361
0.22435
0.207824
0.173196
0.112216
0.0460355
0.0291547
0.0288902
0.0452182
0.110534
0.171531
0.206637
0.223639
0.230997
0.233746
0.234484
0.234455
0.234209
0.233963
0.233782
0.233672
0.23362
0.23362
0.23367
0.233779
0.233959
0.234203
0.234448
0.234476
0.233739
0.230992
0.223636
0.20663
0.171508
0.110517
0.0452121
0.028894
0.0283699
0.0436026
0.107157
0.168125
0.204197
0.222158
0.230213
0.233402
0.23439
0.23449
0.234302
0.234076
0.233897
0.233783
0.233729
0.233728
0.233781
0.233894
0.234072
0.234297
0.234484
0.234383
0.233397
0.230211
0.22216
0.204197
0.168106
0.107141
0.0435957
0.0283742
0.0275896
0.0412546
0.102161
0.162996
0.200445
0.219825
0.228932
0.232798
0.234185
0.234501
0.234419
0.234239
0.234075
0.233963
0.233908
0.233907
0.233961
0.234072
0.234234
0.234414
0.234494
0.234179
0.232794
0.228933
0.219833
0.200457
0.162995
0.102147
0.0412461
0.0275949
0.0265492
0.0382645
0.0956587
0.156184
0.19531
0.216518
0.227013
0.2318
0.233753
0.234397
0.234495
0.234407
0.234286
0.234193
0.234143
0.234142
0.23419
0.234282
0.234402
0.234489
0.234389
0.233744
0.231793
0.227013
0.216531
0.195331
0.156193
0.0956435
0.0382531
0.0265561
0.0252491
0.0347503
0.0878323
0.147673
0.188755
0.212059
0.224197
0.230139
0.232848
0.233965
0.23435
0.234431
0.234407
0.234364
0.234337
0.234336
0.234361
0.234402
0.234425
0.234342
0.233953
0.232831
0.23012
0.224186
0.212066
0.188768
0.147691
0.0878071
0.034734
0.025258
0.0236907
0.0308476
0.0788708
0.137511
0.180889
0.20601
0.219969
0.227294
0.230966
0.232736
0.233559
0.23393
0.234091
0.234158
0.234182
0.234181
0.234156
0.234088
0.233925
0.23355
0.232716
0.230931
0.227246
0.219924
0.205995
0.1809
0.137547
0.0788444
0.0308267
0.0237019
0.0218755
0.0267111
0.0689694
0.12537
0.169722
0.197328
0.213397
0.222286
0.22711
0.229742
0.231207
0.232047
0.232535
0.23281
0.232934
0.232935
0.232812
0.232538
0.232048
0.231201
0.229716
0.22705
0.222185
0.213278
0.19725
0.169728
0.125429
0.0689521
0.026688
0.0218883
0.0197968
0.0225075
0.0583839
0.11129
0.155757
0.185273
0.203021
0.213303
0.219371
0.223095
0.225469
0.227031
0.228057
0.228687
0.228988
0.228991
0.228696
0.228074
0.22705
0.225478
0.223074
0.219294
0.213135
0.202774
0.185046
0.155676
0.111341
0.0583783
0.0224852
0.0198079
0.017467
0.0183772
0.0475458
0.095243
0.138235
0.167721
0.1858
0.196934
0.204301
0.209379
0.212978
0.21559
0.217433
0.218613
0.219192
0.219198
0.218634
0.21747
0.215639
0.21302
0.209384
0.204252
0.196749
0.185431
0.167271
0.137939
0.0952133
0.0475642
0.0183549
0.0174775
0.0149115
0.0144672
0.0368674
0.0766461
0.114338
0.140103
0.156448
0.167803
0.176595
0.183156
0.188191
0.192162
0.195081
0.196994
0.197943
0.197952
0.197023
0.195134
0.192242
0.188279
0.183169
0.176623
0.16773
0.156129
0.139528
0.113793
0.0764603
0.0368637
0.0144443
0.0149195
0.0121544
0.010856
0.0261439
0.0533151
0.0793028
0.0970607
0.109995
0.120696
0.129921
0.137742
0.144229
0.149416
0.153297
0.155875
0.157163
0.157168
0.155893
0.153336
0.149488
0.144341
0.137879
0.130066
0.120787
0.10993
0.0967516
0.0788719
0.0530741
0.0261317
0.0108329
0.0121578
0.00923076
0.00718311
0.0145746
0.0264107
0.0371759
0.0463322
0.0546459
0.062548
0.0698593
0.076389
0.0820217
0.0866543
0.090195
0.0925823
0.0937816
0.0937777
0.092571
0.09018
0.0866435
0.0820263
0.0764132
0.0698932
0.0625782
0.0546545
0.0462871
0.037082
0.0263533
0.014588
0.00715488
0.00922944
0.0057604
0.00127531
0.00515839
0.00909232
0.0131756
0.0170237
0.0206508
0.0240344
0.0271205
0.0298846
0.0323019
0.034314
0.0358666
0.0369211
0.0374533
0.0374512
0.0369144
0.0358553
0.0342991
0.0322867
0.0298739
0.0271091
0.0240189
0.0206298
0.017
0.0131558
0.00908498
0.00515601
0.0012721
0.00575577
0.00396187
0.00672383
0.00937738
0.0117444
0.0140429
0.0161897
0.0181404
0.0197893
0.0212084
0.022419
0.0234169
0.0242115
0.0248062
0.0252026
0.0254015
0.0254035
0.0252085
0.024816
0.0242251
0.0234335
0.0224368
0.0212253
0.0198064
0.0181566
0.0162033
0.014052
0.0117473
0.00937404
0.00671748
0.00395791
0.00353239
0.00604268
0.00866027
0.0110648
0.0134712
0.0157412
0.0178197
0.019588
0.0211202
0.0224392
0.0235619
0.0244641
0.0251411
0.025591
0.0258126
0.0258054
0.0255692
0.0251046
0.024413
0.0234998
0.0223872
0.0210641
0.019528
0.017749
0.0156778
0.0134313
0.0110572
0.008685
0.00608218
0.00355815
0.00508237
0.0015904
0.00735217
0.0109416
0.0145487
0.0176258
0.0203132
0.0227334
0.0248028
0.0265555
0.0279948
0.0291359
0.0299926
0.0305677
0.0308584
0.0308633
0.0305829
0.0300183
0.0291686
0.0280237
0.0265657
0.0248113
0.0227532
0.0203903
0.0177735
0.0146945
0.0110709
0.00744793
0.00165168
0.00511877
0.00865503
0.00991555
0.0131416
0.0165901
0.0216703
0.0272794
0.0325647
0.0370647
0.0408789
0.0442475
0.0471756
0.049613
0.0515106
0.0528206
0.0534865
0.053512
0.0529444
0.051789
0.0500372
0.0476698
0.0446862
0.0411304
0.0370574
0.0324585
0.0272233
0.0216733
0.0164872
0.0130349
0.0101635
0.00867525
0.0115655
0.0132291
0.0178601
0.0252714
0.0351825
0.0462734
0.056256
0.0645778
0.0716964
0.0778455
0.0831802
0.0876527
0.0911382
0.0935588
0.0948548
0.095021
0.0940725
0.0919958
0.0887545
0.0843231
0.0787133
0.0720074
0.0644443
0.055835
0.0460524
0.0351893
0.0250763
0.0176463
0.0134531
0.011552
0.0144485
0.0157793
0.0229234
0.0356869
0.0539789
0.0740383
0.0905608
0.103001
0.112901
0.12126
0.128179
0.133626
0.137735
0.140515
0.141929
0.142033
0.140877
0.138385
0.134405
0.128894
0.121785
0.112894
0.102466
0.089594
0.073243
0.0536968
0.0354019
0.0227336
0.0159968
0.0144075
0.0171751
0.0181064
0.0289164
0.0474531
0.0740458
0.100757
0.122659
0.138472
0.149923
0.158564
0.165202
0.170227
0.173867
0.176249
0.177435
0.177483
0.176405
0.174128
0.17051
0.165406
0.158602
0.149737
0.13814
0.122233
0.0998696
0.0731127
0.0469441
0.0286695
0.0182454
0.0171285
0.0196919
0.0206213
0.0342471
0.058673
0.0915718
0.123036
0.1472
0.164364
0.176265
0.184623
0.190594
0.19486
0.197815
0.199687
0.200602
0.200626
0.19976
0.197929
0.194977
0.190673
0.184638
0.176218
0.164272
0.146998
0.122574
0.0910256
0.0585471
0.0342952
0.0206574
0.0196463
0.0219992
0.0230869
0.0390917
0.0689036
0.106261
0.140051
0.164963
0.182218
0.193808
0.201541
0.206726
0.210206
0.212494
0.213889
0.214557
0.214574
0.213939
0.212569
0.210289
0.206799
0.201595
0.193839
0.182207
0.164858
0.139854
0.106318
0.0693976
0.0394224
0.0231209
0.021941
0.0240915
0.0253865
0.0438927
0.0785876
0.118886
0.153235
0.177817
0.194394
0.205198
0.212108
0.21649
0.219253
0.220964
0.221959
0.222423
0.222437
0.221999
0.221024
0.219324
0.216562
0.212173
0.205247
0.194409
0.177792
0.153274
0.11937
0.0793533
0.0442484
0.0254133
0.0240427
0.0259223
0.0274548
0.0484059
0.0872432
0.130058
0.16372
0.187255
0.202737
0.212532
0.218555
0.222182
0.224328
0.22557
0.22625
0.226555
0.226566
0.226281
0.225617
0.224384
0.222241
0.218612
0.212576
0.202758
0.187257
0.163778
0.130343
0.0879131
0.0485775
0.0274691
0.0258851
0.027473
0.0292531
0.0522902
0.0944514
0.138388
0.171637
0.194107
0.208452
0.217236
0.222426
0.225393
0.227035
0.227914
0.228359
0.228546
0.228554
0.228381
0.227948
0.227077
0.225438
0.22247
0.217273
0.208473
0.194118
0.171689
0.138606
0.0949463
0.0523319
0.0292619
0.0274464
0.0287301
0.030749
0.0554428
0.100222
0.144718
0.177461
0.198983
0.212326
0.220232
0.224718
0.22715
0.228404
0.229015
0.229292
0.229398
0.229403
0.229307
0.229038
0.228433
0.227182
0.224751
0.220262
0.212348
0.199002
0.177513
0.144885
0.100564
0.0554662
0.030757
0.0287119
0.0296826
0.0319122
0.0579098
0.104628
0.149378
0.181607
0.202337
0.214881
0.222099
0.226046
0.228081
0.229056
0.229482
0.229647
0.229699
0.229702
0.229656
0.229497
0.229075
0.228103
0.22607
0.222122
0.2149
0.202357
0.181647
0.149483
0.104819
0.0579293
0.0319199
0.0296703
0.0303222
0.0327123
0.0596223
0.10763
0.15248
0.184296
0.204454
0.216439
0.223187
0.226772
0.228546
0.229344
0.229655
0.229751
0.229772
0.229773
0.229756
0.229663
0.229355
0.22856
0.226787
0.223202
0.216452
0.204467
0.18432
0.152539
0.107741
0.0596332
0.0327178
0.030314
0.0306436
0.0331251
0.0605053
0.109145
0.154032
0.185624
0.205482
0.217179
0.223689
0.227093
0.228738
0.229449
0.229705
0.22977
0.229775
0.229776
0.229772
0.229709
0.229454
0.228745
0.227101
0.223697
0.217185
0.205487
0.185634
0.154062
0.109209
0.0605094
0.0331285
0.0306379
0.0306444
0.0331261
0.0605081
0.109139
0.15403
0.185624
0.205482
0.217179
0.223688
0.227092
0.228738
0.229449
0.229705
0.22977
0.229775
0.229775
0.22977
0.229707
0.229451
0.22874
0.227095
0.223691
0.21718
0.205482
0.185627
0.154046
0.109178
0.0605105
0.0331294
0.03064
0.0303246
0.0327155
0.0596315
0.107609
0.152474
0.184298
0.204456
0.216438
0.223186
0.226771
0.228546
0.229344
0.229655
0.229751
0.22977
0.22977
0.229751
0.229655
0.229344
0.228546
0.226772
0.223187
0.21644
0.204456
0.184301
0.152488
0.107643
0.0596361
0.0327196
0.0303207
0.0296869
0.0319182
0.0579276
0.104588
0.149367
0.18161
0.202341
0.214881
0.222098
0.226045
0.228081
0.229057
0.229483
0.229646
0.229696
0.229696
0.229646
0.229483
0.229057
0.228081
0.226046
0.222101
0.214886
0.202348
0.181622
0.149391
0.104633
0.0579363
0.0319229
0.0296828
0.0287367
0.0307585
0.0554733
0.10014
0.144693
0.177466
0.19899
0.212329
0.220232
0.224718
0.227152
0.228407
0.229017
0.229291
0.229393
0.229394
0.229293
0.229019
0.228408
0.227154
0.224722
0.220238
0.212339
0.199006
0.177491
0.144742
0.100224
0.0554885
0.0307634
0.0287317
0.0274826
0.0292653
0.0523162
0.0943103
0.138343
0.17164
0.194116
0.208456
0.217238
0.222429
0.225397
0.22704
0.227917
0.228358
0.22854
0.228542
0.228362
0.227922
0.227045
0.225401
0.222434
0.217247
0.208471
0.194139
0.171678
0.138418
0.0944433
0.0523502
0.0292714
0.0274761
0.0259355
0.0274645
0.0483198
0.0870139
0.129965
0.163708
0.187259
0.202739
0.212534
0.21856
0.222189
0.224336
0.225575
0.22625
0.226548
0.226552
0.226259
0.225586
0.224346
0.222197
0.218567
0.212543
0.202756
0.187284
0.163751
0.130073
0.087209
0.0484335
0.0274749
0.0259269
0.0241085
0.0253932
0.0437722
0.0783377
0.118731
0.153207
0.177808
0.194385
0.205195
0.212114
0.216502
0.219265
0.220972
0.221961
0.222417
0.222423
0.221976
0.220992
0.219284
0.216515
0.212123
0.205207
0.194405
0.177832
0.153236
0.11883
0.0785419
0.043927
0.0254076
0.0240975
0.0220191
0.0230925
0.0389812
0.068786
0.106206
0.140048
0.164935
0.182187
0.193796
0.201548
0.206741
0.210219
0.2125
0.213888
0.21455
0.21456
0.213913
0.212534
0.210252
0.206765
0.201563
0.193813
0.182217
0.164965
0.140042
0.106205
0.0689018
0.0391426
0.0231086
0.0220061
0.0197085
0.0206274
0.0341902
0.0586958
0.091643
0.123037
0.147127
0.164309
0.176254
0.184636
0.190606
0.194858
0.197797
0.19966
0.200572
0.200588
0.199703
0.197856
0.194916
0.19065
0.184661
0.17627
0.164351
0.147184
0.123013
0.0915184
0.0586733
0.0343066
0.0206443
0.0196992
0.0171915
0.0181101
0.0290001
0.0475629
0.07409
0.100781
0.122547
0.138452
0.149952
0.158582
0.16518
0.170159
0.173763
0.176127
0.177313
0.177342
0.176208
0.173878
0.170278
0.165279
0.158643
0.149953
0.138459
0.12262
0.100703
0.0739652
0.0474097
0.0289469
0.0181285
0.0171818
0.0144634
0.015729
0.0229647
0.0356181
0.0536408
0.073681
0.0906218
0.103139
0.112973
0.121219
0.128025
0.133387
0.137439
0.140181
0.141589
0.141644
0.140338
0.137673
0.133656
0.128277
0.121445
0.113034
0.103076
0.0905601
0.0739202
0.0538117
0.0355821
0.0229166
0.0157933
0.0144539
0.0115709
0.0131574
0.0178787
0.0251289
0.0348781
0.0460185
0.0563372
0.0646906
0.0717399
0.0777888
0.0829685
0.0873723
0.0908144
0.0931899
0.0944289
0.0944956
0.093388
0.0911289
0.0877669
0.0833746
0.0780825
0.0719082
0.0647114
0.0562621
0.0461135
0.0349754
0.0251753
0.0178117
0.0132225
0.0115676
0.00864882
0.00981267
0.01315
0.016621
0.0216011
0.0272528
0.0326346
0.0370873
0.040856
0.0441875
0.0470879
0.0495165
0.0514101
0.0527154
0.0533914
0.0534202
0.0528054
0.0515627
0.0497254
0.047335
0.0444377
0.0410771
0.0372337
0.0326504
0.0272582
0.0216132
0.0165495
0.0131034
0.00988279
0.00865379
0.00507123
0.00157746
0.00732774
0.0109204
0.0145223
0.0176139
0.0203345
0.0227576
0.024824
0.0265698
0.0279998
0.0291337
0.0299837
0.0305524
0.0308385
0.0308404
0.0305585
0.0299938
0.0291472
0.0280135
0.026578
0.0248322
0.0227684
0.0203502
0.017655
0.0145642
0.010951
0.00735138
0.00159622
0.0050815
0.00352275
0.00602665
0.00864889
0.0110632
0.0134789
0.0157558
0.0178352
0.0196042
0.0211367
0.0224601
0.0235821
0.0244838
0.0251611
0.0256125
0.0258373
0.0258352
0.025606
0.0251501
0.0244686
0.0235633
0.0224406
0.0211208
0.0195879
0.0178188
0.0157373
0.0134656
0.0110584
0.00865343
0.00603658
0.00352974
0.00341647
0.00579961
0.00829448
0.0105869
0.0128723
0.0150319
0.0170276
0.018759
0.0202799
0.021603
0.022709
0.0236019
0.0242773
0.0247317
0.0249625
0.0249683
0.024749
0.0243053
0.0236392
0.0227524
0.021639
0.0203131
0.0187872
0.0170593
0.0150542
0.0128754
0.0105712
0.00827228
0.00577196
0.0033981
0.00496176
0.00281011
0.0108054
0.0162558
0.021405
0.0258904
0.0296617
0.0325863
0.034794
0.0364512
0.0377105
0.0386543
0.0393269
0.0397623
0.0399782
0.0399817
0.0397727
0.0393457
0.0386861
0.0377626
0.036512
0.0348269
0.0325789
0.0295876
0.025731
0.0211943
0.0160626
0.0107497
0.00266855
0.00493392
0.00835011
0.013487
0.0170301
0.0206824
0.023904
0.0271123
0.0302284
0.0331637
0.0357937
0.0380515
0.0401179
0.0419593
0.0433993
0.0443873
0.044913
0.0449654
0.0445249
0.0436006
0.0422159
0.0404118
0.0382433
0.0358406
0.0332478
0.0302921
0.027094
0.0237697
0.0206652
0.0171269
0.0133845
0.00833398
0.0110981
0.0188266
0.0232589
0.0245116
0.0292615
0.0355177
0.0416254
0.0472494
0.0525685
0.0576401
0.0620594
0.065536
0.0679317
0.069431
0.0701048
0.0699713
0.0690295
0.0672865
0.0647658
0.061488
0.0574141
0.0526821
0.0472849
0.0414918
0.0351399
0.0286142
0.0243372
0.0232142
0.0185685
0.0110855
0.0137717
0.0227313
0.0265439
0.0294191
0.0388751
0.049884
0.0610164
0.0709703
0.079418
0.0869574
0.0933901
0.0983447
0.101793
0.103902
0.104902
0.104743
0.10334
0.100742
0.0971077
0.0923075
0.0863054
0.0792977
0.071358
0.0620006
0.0509031
0.0388567
0.0291034
0.0264239
0.0224915
0.0137822
0.0163567
0.025999
0.0288572
0.0355651
0.0497682
0.0671512
0.0844758
0.0999633
0.112512
0.122476
0.130302
0.136031
0.140033
0.142552
0.143757
0.143669
0.142261
0.139524
0.135437
0.129787
0.12224
0.112642
0.100489
0.0852944
0.0683739
0.0504603
0.0355637
0.028862
0.025901
0.0163773
0.0188105
0.0284525
0.0312359
0.0429672
0.0621111
0.084831
0.108511
0.127992
0.142376
0.152786
0.160446
0.165999
0.169861
0.172296
0.173464
0.173422
0.172164
0.16964
0.165732
0.160196
0.152634
0.142414
0.128357
0.109092
0.0855026
0.0624531
0.0430698
0.0312477
0.0284774
0.0188366
0.021084
0.0304326
0.0339581
0.0508883
0.0744468
0.102657
0.129301
0.149796
0.16455
0.174938
0.182243
0.187344
0.190795
0.192931
0.193946
0.193921
0.192856
0.190669
0.187182
0.182068
0.174788
0.164485
0.149875
0.129493
0.102802
0.0742602
0.0506384
0.0340904
0.030488
0.0211217
0.0231326
0.0320813
0.0372606
0.0578121
0.0856704
0.117865
0.145153
0.165642
0.180171
0.190197
0.197028
0.201627
0.204632
0.206442
0.207287
0.20727
0.206391
0.204547
0.201514
0.196896
0.190063
0.180063
0.16558
0.145095
0.117622
0.0850048
0.0571813
0.037443
0.0321246
0.0231667
0.0249389
0.0334203
0.0405917
0.0638625
0.095721
0.129865
0.157141
0.1771
0.19103
0.200472
0.206743
0.210828
0.213406
0.214911
0.215599
0.215587
0.214875
0.213348
0.21075
0.206649
0.200369
0.190929
0.177001
0.157008
0.129596
0.0952027
0.0632712
0.040799
0.0334507
0.0249675
0.0264804
0.0345145
0.0437113
0.0690985
0.104386
0.139217
0.166125
0.185355
0.198536
0.207302
0.212984
0.216574
0.218762
0.22
0.220553
0.220544
0.219976
0.218724
0.216523
0.212922
0.207232
0.19846
0.185268
0.166001
0.138986
0.10395
0.0686402
0.0438971
0.034538
0.0265029
0.0277372
0.0354003
0.0464237
0.0733953
0.111212
0.14631
0.172722
0.191213
0.203657
0.21177
0.216904
0.220053
0.221908
0.222922
0.223364
0.223359
0.222907
0.221884
0.220021
0.216865
0.211725
0.203605
0.191148
0.172622
0.146126
0.110878
0.0730727
0.0465337
0.0354191
0.0277542
0.0286938
0.0360825
0.0484462
0.0765917
0.116197
0.151385
0.177342
0.195208
0.207033
0.214601
0.219284
0.222077
0.223671
0.224513
0.224871
0.224868
0.224504
0.223657
0.222059
0.219262
0.214575
0.207002
0.195165
0.177272
0.151257
0.115976
0.0764006
0.04846
0.0360959
0.0287062
0.0293389
0.0365644
0.0497765
0.0786866
0.119436
0.154644
0.180269
0.197693
0.209079
0.216261
0.220626
0.223173
0.224587
0.225313
0.225615
0.225614
0.225309
0.224581
0.223165
0.220617
0.21625
0.209065
0.19767
0.18023
0.154569
0.119303
0.0785713
0.0497782
0.0365714
0.0293474
0.0296647
0.0368661
0.0504574
0.07974
0.121033
0.156237
0.181688
0.198883
0.210043
0.217026
0.221229
0.22365
0.224973
0.225641
0.225915
0.225915
0.22564
0.224972
0.223649
0.221228
0.217026
0.210043
0.198878
0.181673
0.156201
0.120961
0.0796751
0.050457
0.0368569
0.0296703
0.0296643
0.0368656
0.0504586
0.0797543
0.121042
0.15624
0.181689
0.198884
0.210044
0.217027
0.221229
0.22365
0.224973
0.225641
0.225916
0.225916
0.225642
0.224975
0.223654
0.221235
0.217034
0.210053
0.198891
0.18169
0.156227
0.121003
0.0797168
0.0504591
0.0368583
0.0296683
0.029338
0.0365697
0.0497804
0.0787309
0.119462
0.154653
0.180272
0.197694
0.209081
0.216262
0.220627
0.223173
0.224587
0.225314
0.225617
0.225618
0.225316
0.224591
0.223179
0.220636
0.216274
0.209094
0.197707
0.18028
0.154648
0.119436
0.0787039
0.049784
0.0365721
0.0293411
0.0286924
0.0360943
0.0484477
0.0766675
0.116241
0.151397
0.177344
0.19521
0.207036
0.214604
0.219285
0.222077
0.22367
0.224513
0.224874
0.224875
0.224516
0.223675
0.222084
0.219294
0.214615
0.20705
0.195222
0.177351
0.15139
0.116212
0.0766409
0.0484575
0.0360993
0.028695
0.027735
0.0354177
0.0463758
0.0735139
0.111275
0.146321
0.17272
0.191215
0.203663
0.211776
0.216907
0.220052
0.221906
0.222921
0.223367
0.223368
0.222924
0.22191
0.220058
0.216914
0.211784
0.203672
0.191222
0.17272
0.146305
0.111233
0.0734724
0.0464132
0.0354251
0.0277375
0.026477
0.0345391
0.0436443
0.0692688
0.104464
0.139222
0.166117
0.185358
0.198548
0.207314
0.21299
0.216574
0.218759
0.219998
0.220556
0.220557
0.219999
0.218761
0.216576
0.212991
0.207315
0.19855
0.185359
0.16611
0.139194
0.10441
0.0692126
0.0437039
0.03455
0.0264797
0.024934
0.0334523
0.0405584
0.0640795
0.0958034
0.129866
0.157132
0.17711
0.191053
0.200492
0.206752
0.210827
0.213399
0.214905
0.2156
0.2156
0.214904
0.213396
0.210822
0.206746
0.200486
0.19105
0.177109
0.157121
0.129832
0.0957439
0.0640085
0.0406162
0.0334696
0.0249368
0.0231251
0.032114
0.0372384
0.0579943
0.0858299
0.117876
0.145153
0.165667
0.180209
0.190225
0.197037
0.201619
0.204617
0.206428
0.207282
0.20728
0.206424
0.204608
0.201606
0.197021
0.190213
0.18021
0.165681
0.145161
0.117853
0.0857697
0.0579402
0.0373058
0.0321436
0.0231284
0.0210748
0.0304862
0.0341003
0.0508267
0.0744487
0.102604
0.129287
0.149831
0.164594
0.174959
0.182238
0.187322
0.19077
0.192912
0.193939
0.193935
0.1929
0.19075
0.187295
0.182209
0.174944
0.164613
0.149894
0.129366
0.102642
0.0744441
0.0508394
0.0341218
0.0305231
0.0210779
0.0188034
0.0285204
0.0313883
0.04286
0.0619579
0.0846841
0.10844
0.127977
0.142374
0.152771
0.160418
0.165972
0.169853
0.172308
0.173492
0.173481
0.172277
0.169807
0.165918
0.160366
0.152744
0.142412
0.12811
0.108623
0.0848316
0.0620385
0.0428599
0.0314079
0.0285634
0.018803
0.0163501
0.026068
0.0289242
0.0354918
0.0495003
0.0666757
0.0842777
0.0998308
0.112421
0.122431
0.130305
0.136092
0.14016
0.142728
0.143954
0.143924
0.142645
0.140041
0.135964
0.130193
0.122363
0.112439
0.0999734
0.0845204
0.0670632
0.0496333
0.0354552
0.0289759
0.0261115
0.016349
0.0137667
0.0228396
0.026582
0.0294341
0.038746
0.0495532
0.0605869
0.0706947
0.079301
0.0870028
0.0935931
0.0986761
0.102244
0.104443
0.105456
0.105394
0.104268
0.101993
0.0984063
0.093358
0.0868689
0.0792598
0.0707791
0.0608322
0.0497127
0.0387363
0.0292821
0.0265665
0.0228286
0.0137654
0.0111004
0.018912
0.0232003
0.0244297
0.029362
0.0355084
0.0415103
0.0470903
0.0523829
0.0574765
0.0620849
0.0656903
0.0681932
0.0697466
0.0704803
0.0704466
0.0696506
0.0680579
0.0655859
0.0620388
0.0575678
0.0524606
0.0471237
0.0415062
0.0354185
0.0291393
0.0242633
0.0231787
0.0188881
0.0110963
0.00835322
0.013497
0.0168834
0.0204917
0.0238554
0.0271399
0.0303044
0.0333033
0.0359524
0.0381718
0.0400841
0.0419056
0.0433503
0.0443371
0.044842
0.0448572
0.0443828
0.0434278
0.0420136
0.0401984
0.038193
0.0359579
0.0333129
0.0303258
0.0271116
0.0237806
0.0204808
0.0169022
0.0134966
0.00835152
0.00497201
0.00286723
0.0107581
0.0162666
0.0214772
0.0259871
0.0297493
0.0326714
0.0348696
0.0365088
0.0377488
0.0386885
0.039356
0.039785
0.039996
0.039998
0.0397919
0.0393707
0.0387156
0.0377917
0.0365576
0.03492
0.0327216
0.0297901
0.0259912
0.0214587
0.0162512
0.0107656
0.00284622
0.00496799
0.0034234
0.0058094
0.00830044
0.0105919
0.0128725
0.0150267
0.0170211
0.0187508
0.02027
0.0215893
0.0226943
0.0235863
0.02426
0.0247116
0.0249386
0.0249399
0.0247152
0.024266
0.0235944
0.0227039
0.0215982
0.0202755
0.0187547
0.0170237
0.0150311
0.0128736
0.01059
0.00829836
0.00580601
0.00342052
0.00333685
0.0056587
0.00813715
0.0104407
0.0127428
0.0149225
0.0169338
0.0186674
0.0201785
0.0214823
0.0225735
0.0234494
0.0241078
0.0245465
0.0247642
0.0247604
0.0245354
0.0240906
0.023428
0.0225501
0.0214597
0.0201611
0.0186586
0.0169344
0.0149302
0.0127556
0.010455
0.00814964
0.00566785
0.00334198
0.00484794
0.00296189
0.0120988
0.018206
0.0239425
0.0291783
0.0338914
0.0379851
0.0413859
0.0441675
0.0463667
0.0480479
0.0492692
0.0500645
0.050455
0.0504517
0.0500561
0.0492605
0.0480456
0.046378
0.0442119
0.0414968
0.0381449
0.0340612
0.0293372
0.0241227
0.0183365
0.0121567
0.00299592
0.00485438
0.00818848
0.0143005
0.0202435
0.0259481
0.030362
0.0343419
0.0380559
0.0415042
0.0445146
0.0469598
0.0487492
0.0499811
0.0508273
0.0513584
0.0516121
0.0515947
0.0512982
0.0507091
0.0498019
0.0485296
0.0468184
0.0445206
0.0415311
0.0380393
0.0342973
0.0303393
0.0258965
0.0202016
0.014308
0.00819204
0.0109364
0.02011
0.0277657
0.0317942
0.0343169
0.0368553
0.0398541
0.043313
0.0468434
0.0500009
0.0527875
0.0552488
0.0573289
0.0587925
0.0595174
0.0594421
0.0585748
0.0569982
0.0548504
0.0522975
0.0495324
0.0465671
0.0433656
0.0400092
0.0371239
0.034597
0.0317999
0.0277986
0.0202408
0.010944
0.0136172
0.0250992
0.0322194
0.0356039
0.037855
0.0438263
0.0513047
0.0585298
0.0649856
0.0703618
0.0748445
0.078778
0.0820039
0.0843059
0.0855036
0.0855404
0.0844321
0.0822286
0.079021
0.0750408
0.0704764
0.0650658
0.0587194
0.0516699
0.0443328
0.0381944
0.0357886
0.032344
0.0253141
0.0136208
0.0161952
0.0298068
0.0356204
0.0382101
0.0438991
0.055629
0.0691379
0.080458
0.0892769
0.096428
0.102548
0.108083
0.112396
0.115318
0.1168
0.116833
0.115416
0.112547
0.108254
0.102738
0.0964929
0.0891822
0.0803803
0.0695352
0.0560122
0.0442993
0.0383108
0.035727
0.0299247
0.0161881
0.0186042
0.0339735
0.0384987
0.0410063
0.0520701
0.0695788
0.0867021
0.101739
0.114928
0.125918
0.134434
0.140738
0.14527
0.148221
0.149685
0.149702
0.148272
0.145349
0.140834
0.134514
0.125927
0.114829
0.101472
0.0866024
0.0696927
0.0521996
0.0408506
0.0385401
0.0340398
0.0185884
0.0208137
0.0375909
0.0409945
0.0445772
0.0608557
0.0815395
0.102396
0.122468
0.138836
0.150901
0.159672
0.165981
0.170357
0.173127
0.174474
0.174483
0.173153
0.170399
0.166037
0.159728
0.150929
0.138787
0.122379
0.102327
0.0815763
0.0608614
0.0442639
0.0408548
0.0375911
0.0207922
0.0227993
0.0406271
0.0427599
0.0489988
0.0689135
0.0925434
0.118235
0.140487
0.157199
0.16931
0.177938
0.183991
0.188084
0.190619
0.191834
0.191841
0.190638
0.188112
0.184025
0.177975
0.169342
0.157223
0.14053
0.118336
0.0927391
0.0690909
0.0487368
0.0425817
0.0406108
0.0227771
0.0245448
0.0431451
0.044205
0.0537701
0.0762987
0.103405
0.131742
0.154113
0.170619
0.182409
0.19068
0.196369
0.200139
0.202432
0.203518
0.203523
0.202447
0.200161
0.196395
0.190708
0.182443
0.170671
0.15421
0.131917
0.103648
0.0764912
0.053517
0.0440801
0.0431202
0.0245236
0.0260306
0.0451791
0.0454773
0.0583861
0.0828829
0.113025
0.142018
0.164201
0.180257
0.191577
0.199406
0.204699
0.208143
0.210202
0.211166
0.211171
0.210216
0.208162
0.204723
0.199434
0.191614
0.180317
0.164304
0.142187
0.113269
0.083097
0.0581927
0.0454014
0.0451476
0.0260121
0.0272399
0.0467616
0.0465782
0.0623512
0.0883525
0.120639
0.149709
0.1715
0.187045
0.19787
0.205256
0.210171
0.213314
0.215165
0.216021
0.216026
0.215177
0.213332
0.210194
0.205285
0.197909
0.187102
0.171591
0.149855
0.12086
0.0885695
0.0622856
0.0465329
0.0467275
0.0272249
0.0281588
0.0479246
0.0475246
0.0652539
0.0924496
0.126184
0.155157
0.176551
0.191637
0.202028
0.209032
0.213628
0.216523
0.218203
0.218973
0.218976
0.218214
0.216539
0.21365
0.209059
0.202064
0.191687
0.176624
0.155271
0.126356
0.0926268
0.0652457
0.0475137
0.0478922
0.0281472
0.0287766
0.0486828
0.0482873
0.0672312
0.0951686
0.129785
0.158636