/*--------------------------------*- C++ -*----------------------------------*\
| =========                 |                                                 |
| \\      /  F ield         | OpenFOAM: The Open Source CFD Toolbox           |
|  \\    /   O peration     | Version:  2312                                  |
|   \\  /    A nd           | Website:  www.openfoam.com                      |
|    \\/     M anipulation  |                                                 |
\*---------------------------------------------------------------------------*/
FoamFile
{
    version     2.0;
    format      ascii;
    arch        "LSB;label=32;scalar=64";
    class       volScalarField;
    location    "150";
    object      epsilon;
}
// * * * * * * * * * * * * * * * * * * * * * * * * * * * * * * * * * * * * * //

dimensions      [0 2 -3 0 0 0 0];

internalField   nonuniform List<scalar> 
27000
(
0.0015347
0.000225811
0.000111144
7.00989e-05
5.19353e-05
4.16255e-05
3.49194e-05
3.02846e-05
2.69571e-05
2.45219e-05
2.27064e-05
2.13851e-05
2.04663e-05
1.9888e-05
1.96131e-05
1.96249e-05
1.99243e-05
2.05301e-05
2.14805e-05
2.28338e-05
2.46565e-05
2.7125e-05
3.04927e-05
3.51685e-05
4.1905e-05
5.22002e-05
7.02196e-05
0.000110773
0.000223952
0.00152144
0.000151435
3.2694e-05
1.39514e-05
9.31441e-06
7.19316e-06
5.96896e-06
5.13408e-06
4.52116e-06
4.05995e-06
3.71362e-06
3.45328e-06
3.26173e-06
3.12751e-06
3.04252e-06
3.00162e-06
3.00232e-06
3.04453e-06
3.13046e-06
3.2647e-06
3.4541e-06
3.70924e-06
4.05232e-06
4.51118e-06
5.12441e-06
5.96356e-06
7.19404e-06
9.30819e-06
1.38583e-05
3.23239e-05
0.000150481
0.000100366
1.54739e-05
5.14443e-06
2.54011e-06
1.89901e-06
1.62302e-06
1.44945e-06
1.32246e-06
1.22451e-06
1.14879e-06
1.09063e-06
1.04691e-06
1.01562e-06
9.95357e-07
9.85152e-07
9.84508e-07
9.9336e-07
1.01201e-06
1.04118e-06
1.08216e-06
1.1374e-06
1.2112e-06
1.30935e-06
1.44125e-06
1.62653e-06
1.9212e-06
2.57759e-06
5.13707e-06
1.52729e-05
0.000100295
6.67044e-05
1.03534e-05
2.84309e-06
1.37318e-06
9.79133e-07
8.44446e-07
7.77181e-07
7.32404e-07
6.98678e-07
6.72632e-07
6.52336e-07
6.36741e-07
6.2534e-07
6.1777e-07
6.13771e-07
6.13202e-07
6.16036e-07
6.22359e-07
6.32428e-07
6.46789e-07
6.6646e-07
6.93028e-07
7.29391e-07
7.80253e-07
8.57537e-07
1.00418e-06
1.4029e-06
2.84911e-06
1.02923e-05
6.68914e-05
4.91895e-05
7.3002e-06
2.054e-06
1.03233e-06
7.3946e-07
6.33501e-07
5.87338e-07
5.61895e-07
5.44615e-07
5.33068e-07
5.24577e-07
5.17806e-07
5.12739e-07
5.09282e-07
5.07356e-07
5.06929e-07
5.08018e-07
5.1069e-07
5.15112e-07
5.21644e-07
5.30875e-07
5.43583e-07
5.63356e-07
5.93433e-07
6.45044e-07
7.5511e-07
1.04547e-06
2.05025e-06
7.27965e-06
4.94344e-05
3.85841e-05
5.64087e-06
1.63953e-06
8.75428e-07
6.4538e-07
5.56875e-07
5.18396e-07
4.99562e-07
4.88878e-07
4.82241e-07
4.77769e-07
4.7449e-07
4.7207e-07
4.70392e-07
4.6941e-07
4.6912e-07
4.69555e-07
4.70786e-07
4.72964e-07
4.76383e-07
4.81561e-07
4.89486e-07
5.02192e-07
5.23443e-07
5.63282e-07
6.52012e-07
8.77243e-07
1.62964e-06
5.62988e-06
3.87975e-05
3.1587e-05
4.6142e-06
1.39652e-06
7.82428e-07
5.94978e-07
5.21425e-07
4.88894e-07
4.73607e-07
4.65891e-07
4.6167e-07
4.59146e-07
4.57483e-07
4.56317e-07
4.55509e-07
4.55016e-07
4.54838e-07
4.55007e-07
4.5559e-07
4.56716e-07
4.58624e-07
4.61746e-07
4.66908e-07
4.75772e-07
4.91976e-07
5.24493e-07
5.96386e-07
7.7913e-07
1.38512e-06
4.60631e-06
3.17523e-05
2.67019e-05
3.9195e-06
1.23552e-06
7.20812e-07
5.62292e-07
5.01339e-07
4.74342e-07
4.61915e-07
4.56054e-07
4.53187e-07
4.51694e-07
4.50835e-07
4.50284e-07
4.49911e-07
4.49674e-07
4.49574e-07
4.49636e-07
4.49913e-07
4.505e-07
4.51574e-07
4.53471e-07
4.56863e-07
4.63197e-07
4.75727e-07
5.02085e-07
5.6143e-07
7.16327e-07
1.2265e-06
3.91774e-06
2.68481e-05
2.31537e-05
3.42168e-06
1.1194e-06
6.76705e-07
5.39532e-07
4.88475e-07
4.662e-07
4.56206e-07
4.51725e-07
4.49721e-07
4.48807e-07
4.4836e-07
4.48108e-07
4.47945e-07
4.47837e-07
4.47785e-07
4.47805e-07
4.47932e-07
4.48229e-07
4.48817e-07
4.49945e-07
4.52164e-07
4.56725e-07
4.66485e-07
4.88085e-07
5.38142e-07
6.72809e-07
1.11337e-06
3.42314e-06
2.32567e-05
2.05694e-05
3.05868e-06
1.0329e-06
6.44207e-07
5.25563e-07
4.80283e-07
4.61338e-07
4.53197e-07
4.4974e-07
4.48315e-07
4.47741e-07
4.47505e-07
4.47394e-07
4.47328e-07
4.47282e-07
4.47255e-07
4.47259e-07
4.47312e-07
4.47451e-07
4.47755e-07
4.48409e-07
4.49868e-07
4.53223e-07
4.61035e-07
4.7937e-07
5.23743e-07
6.41214e-07
1.02912e-06
3.06095e-06
2.06363e-05
1.86837e-05
2.79361e-06
9.68172e-07
6.19282e-07
5.14036e-07
4.74363e-07
4.58155e-07
4.51456e-07
4.4876e-07
4.4773e-07
4.47361e-07
4.47236e-07
4.4719e-07
4.47166e-07
4.47147e-07
4.47134e-07
4.4713e-07
4.47146e-07
4.47201e-07
4.47344e-07
4.47718e-07
4.487e-07
4.51243e-07
4.57645e-07
4.73405e-07
5.12527e-07
6.17272e-07
9.65999e-07
2.79586e-06
1.87257e-05
1.73253e-05
2.60261e-06
9.20697e-07
6.00711e-07
5.05243e-07
4.69957e-07
4.55934e-07
4.50353e-07
4.48221e-07
4.47463e-07
4.47223e-07
4.47157e-07
4.47142e-07
4.47136e-07
4.47129e-07
4.47121e-07
4.47115e-07
4.47112e-07
4.47124e-07
4.47182e-07
4.47395e-07
4.48082e-07
4.50077e-07
4.55441e-07
4.69184e-07
5.04189e-07
5.99503e-07
9.19597e-07
2.60457e-06
1.73513e-05
1.63843e-05
2.47031e-06
8.87446e-07
5.87458e-07
4.98955e-07
4.66829e-07
4.54401e-07
4.49633e-07
4.47898e-07
4.47326e-07
4.47166e-07
4.47134e-07
4.47133e-07
4.47135e-07
4.47134e-07
4.47129e-07
4.47121e-07
4.4711e-07
4.47101e-07
4.47116e-07
4.47243e-07
4.47752e-07
4.49384e-07
4.54013e-07
4.66287e-07
4.98304e-07
5.86896e-07
8.86983e-07
2.47192e-06
1.64005e-05
1.57909e-05
2.38691e-06
8.66348e-07
5.78926e-07
4.9492e-07
4.64834e-07
4.53437e-07
4.49191e-07
4.4771e-07
4.47251e-07
4.47139e-07
4.47126e-07
4.47133e-07
4.47139e-07
4.4714e-07
4.47136e-07
4.47128e-07
4.47114e-07
4.47097e-07
4.47092e-07
4.47175e-07
4.47586e-07
4.48999e-07
4.53161e-07
4.64478e-07
4.94528e-07
5.7864e-07
8.66188e-07
2.38819e-06
1.58013e-05
1.55036e-05
2.34657e-06
8.56126e-07
5.74777e-07
4.92964e-07
4.63874e-07
4.52978e-07
4.48984e-07
4.47624e-07
4.47219e-07
4.47128e-07
4.47123e-07
4.47134e-07
4.47141e-07
4.47144e-07
4.47141e-07
4.47134e-07
4.47119e-07
4.471e-07
4.4709e-07
4.47158e-07
4.47529e-07
4.48844e-07
4.52786e-07
4.63639e-07
4.9272e-07
5.7462e-07
8.561e-07
2.34761e-06
1.55108e-05
1.55029e-05
2.34657e-06
8.56167e-07
5.74802e-07
4.9299e-07
4.63896e-07
4.52994e-07
4.48994e-07
4.4763e-07
4.47223e-07
4.47131e-07
4.47125e-07
4.47136e-07
4.47144e-07
4.47147e-07
4.47145e-07
4.47138e-07
4.47125e-07
4.47107e-07
4.47101e-07
4.47176e-07
4.47558e-07
4.4889e-07
4.52853e-07
4.63725e-07
4.92816e-07
5.74696e-07
8.56182e-07
2.34746e-06
1.55087e-05
1.57886e-05
2.38691e-06
8.66481e-07
5.79008e-07
4.95004e-07
4.64902e-07
4.53484e-07
4.49221e-07
4.47728e-07
4.47262e-07
4.47146e-07
4.47132e-07
4.47139e-07
4.47146e-07
4.47149e-07
4.47147e-07
4.47141e-07
4.4713e-07
4.47117e-07
4.47123e-07
4.47226e-07
4.47671e-07
4.49135e-07
4.53364e-07
4.6475e-07
4.94841e-07
5.78898e-07
8.66476e-07
2.38774e-06
1.57944e-05
1.63802e-05
2.47034e-06
8.87715e-07
5.87626e-07
4.99114e-07
4.66948e-07
4.5448e-07
4.4968e-07
4.47926e-07
4.47342e-07
4.47176e-07
4.47144e-07
4.47145e-07
4.4715e-07
4.47152e-07
4.4715e-07
4.47145e-07
4.47137e-07
4.47133e-07
4.4716e-07
4.47315e-07
4.4788e-07
4.49603e-07
4.54359e-07
4.66778e-07
4.98909e-07
5.87453e-07
8.8762e-07
2.47116e-06
1.63871e-05
1.73187e-05
2.60273e-06
9.2119e-07
6.01062e-07
5.05502e-07
4.7013e-07
4.56038e-07
4.5041e-07
4.4825e-07
4.47479e-07
4.47234e-07
4.47171e-07
4.47161e-07
4.47162e-07
4.47161e-07
4.47159e-07
4.47155e-07
4.47152e-07
4.47162e-07
4.47226e-07
4.47466e-07
4.48221e-07
4.50346e-07
4.55911e-07
4.69919e-07
5.05202e-07
6.00711e-07
9.20898e-07
2.60358e-06
1.73284e-05
1.86736e-05
2.79392e-06
9.6898e-07
6.19818e-07
5.14386e-07
4.74572e-07
4.58263e-07
4.51502e-07
4.48776e-07
4.47736e-07
4.4737e-07
4.47254e-07
4.47221e-07
4.47211e-07
4.47205e-07
4.472e-07
4.47199e-07
4.47208e-07
4.47246e-07
4.47372e-07
4.47747e-07
4.48783e-07
4.51475e-07
4.58153e-07
4.74326e-07
5.13968e-07
6.1923e-07
9.68352e-07
2.79481e-06
1.8688e-05
2.05543e-05
3.0593e-06
1.03405e-06
6.44927e-07
5.25925e-07
4.80471e-07
4.61402e-07
4.53196e-07
4.49719e-07
4.48298e-07
4.47742e-07
4.4753e-07
4.47445e-07
4.47404e-07
4.47382e-07
4.47373e-07
4.47381e-07
4.47417e-07
4.47514e-07
4.47754e-07
4.48348e-07
4.49796e-07
4.53261e-07
4.61377e-07
4.80254e-07
5.25442e-07
6.44029e-07
1.03292e-06
3.06016e-06
2.05765e-05
2.31319e-05
3.42293e-06
1.12106e-06
6.77592e-07
5.39837e-07
4.88551e-07
4.66141e-07
4.56102e-07
4.51632e-07
4.49666e-07
4.48798e-07
4.48397e-07
4.4819e-07
4.48071e-07
4.48006e-07
4.47988e-07
4.48023e-07
4.48129e-07
4.48352e-07
4.48806e-07
4.49759e-07
4.51821e-07
4.56348e-07
4.66333e-07
4.88506e-07
5.39368e-07
6.76343e-07
1.1191e-06
3.42342e-06
2.31659e-05
2.66724e-05
3.92195e-06
1.23773e-06
7.21732e-07
5.62432e-07
5.01153e-07
4.74038e-07
4.61632e-07
4.55854e-07
4.53083e-07
4.51678e-07
4.50896e-07
4.50416e-07
4.50113e-07
4.49947e-07
4.49912e-07
4.50017e-07
4.50286e-07
4.50778e-07
4.51638e-07
4.53194e-07
4.56174e-07
4.62162e-07
4.74655e-07
5.01566e-07
5.62215e-07
7.20275e-07
1.23467e-06
3.92119e-06
2.6722e-05
3.15583e-05
4.6184e-06
1.39897e-06
7.82986e-07
5.94584e-07
5.20686e-07
4.88168e-07
4.73068e-07
4.65568e-07
4.61528e-07
4.59144e-07
4.5759e-07
4.5652e-07
4.55812e-07
4.55429e-07
4.55368e-07
4.55636e-07
4.56263e-07
4.57316e-07
4.58958e-07
4.6156e-07
4.65955e-07
4.73925e-07
4.89453e-07
5.22045e-07
5.9529e-07
7.81976e-07
1.39508e-06
4.61524e-06
3.16155e-05
3.85496e-05
5.64524e-06
1.6414e-06
8.74762e-07
6.43706e-07
5.55161e-07
5.17082e-07
4.98767e-07
4.88488e-07
4.82119e-07
4.77826e-07
4.74675e-07
4.72365e-07
4.70811e-07
4.69987e-07
4.69886e-07
4.70515e-07
4.71904e-07
4.74123e-07
4.77327e-07
4.81877e-07
4.887e-07
4.99771e-07
5.1912e-07
5.58025e-07
6.46494e-07
8.75657e-07
1.63799e-06
5.64092e-06
3.86248e-05
4.91529e-05
7.30431e-06
2.0536e-06
1.02876e-06
7.35405e-07
6.30366e-07
5.85499e-07
5.61077e-07
5.44351e-07
5.3308e-07
5.2477e-07
5.18105e-07
5.1313e-07
5.09803e-07
5.08076e-07
5.07924e-07
5.09345e-07
5.12377e-07
5.17106e-07
5.23689e-07
5.32326e-07
5.43908e-07
5.61582e-07
5.87781e-07
6.34938e-07
7.41584e-07
1.03385e-06
2.05236e-06
7.29607e-06
4.92404e-05
6.66808e-05
1.03599e-05
2.83835e-06
1.3649e-06
9.72115e-07
8.40235e-07
7.7532e-07
7.31866e-07
6.9879e-07
6.73022e-07
6.52809e-07
6.37213e-07
6.25819e-07
6.18329e-07
6.14536e-07
6.14324e-07
6.17677e-07
6.24685e-07
6.35561e-07
6.50676e-07
6.70638e-07
6.9652e-07
7.30495e-07
7.76178e-07
8.45019e-07
9.81509e-07
1.37602e-06
2.8412e-06
1.03362e-05
6.67472e-05
0.00010037
1.55039e-05
5.13623e-06
2.52626e-06
1.89057e-06
1.6197e-06
1.44908e-06
1.32335e-06
1.22581e-06
1.14999e-06
1.09151e-06
1.04745e-06
1.01592e-06
9.95568e-07
9.85503e-07
9.85256e-07
9.94785e-07
1.01448e-06
1.04515e-06
1.08814e-06
1.14549e-06
1.22051e-06
1.31806e-06
1.44537e-06
1.62046e-06
1.89882e-06
2.54163e-06
5.13616e-06
1.54256e-05
0.000100334
0.000151594
3.27385e-05
1.39512e-05
9.30707e-06
7.19067e-06
5.97085e-06
5.1381e-06
4.52534e-06
4.06309e-06
3.71505e-06
3.45301e-06
3.26023e-06
3.1251e-06
3.03936e-06
2.99783e-06
2.99802e-06
3.03987e-06
3.12579e-06
3.26077e-06
3.45268e-06
3.71281e-06
4.05915e-06
4.52028e-06
5.13308e-06
5.96771e-06
7.19045e-06
9.30536e-06
1.39171e-05
3.25845e-05
0.0001512
0.00153819
0.00022638
0.000111324
7.015e-05
5.19389e-05
4.16132e-05
3.49032e-05
3.02684e-05
2.69417e-05
2.45041e-05
2.26872e-05
2.13661e-05
2.04466e-05
1.98659e-05
1.95865e-05
1.9591e-05
1.98797e-05
2.04708e-05
2.14022e-05
2.27358e-05
2.45594e-05
2.70076e-05
3.03504e-05
3.50022e-05
4.17257e-05
5.20483e-05
7.02065e-05
0.00011119
0.000225662
0.00153304
0.00109627
0.000165136
8.78876e-05
5.86429e-05
4.57529e-05
3.81377e-05
3.29915e-05
2.92801e-05
2.65481e-05
2.45198e-05
2.30645e-05
2.20049e-05
2.12572e-05
2.07753e-05
2.05326e-05
2.05156e-05
2.0723e-05
2.11651e-05
2.18666e-05
2.28792e-05
2.43415e-05
2.63224e-05
2.89832e-05
3.2554e-05
3.76376e-05
4.53111e-05
5.8513e-05
8.87111e-05
0.000168731
0.00112283
0.000104748
2.98419e-05
1.99246e-05
1.41357e-05
1.13728e-05
9.56338e-06
8.2341e-06
7.24415e-06
6.48868e-06
5.91635e-06
5.49518e-06
5.19246e-06
4.98267e-06
4.84987e-06
4.78529e-06
4.78497e-06
4.84919e-06
4.9829e-06
5.19673e-06
5.50948e-06
5.94765e-06
6.53409e-06
7.30247e-06
8.30736e-06
9.65941e-06
1.15011e-05
1.43754e-05
2.04148e-05
3.12146e-05
0.000107186
8.29154e-05
2.1448e-05
1.12261e-05
5.92413e-06
3.81751e-06
2.90294e-06
2.39562e-06
2.06236e-06
1.83151e-06
1.66376e-06
1.54319e-06
1.45853e-06
1.40144e-06
1.36649e-06
1.35102e-06
1.35371e-06
1.37417e-06
1.41437e-06
1.47822e-06
1.57188e-06
1.70329e-06
1.88161e-06
2.11959e-06
2.43953e-06
2.90017e-06
3.73741e-06
5.80703e-06
1.13261e-05
2.22073e-05
8.35373e-05
5.74007e-05
1.57993e-05
6.50827e-06
2.94248e-06
1.66548e-06
1.19678e-06
9.918e-07
8.79022e-07
8.03825e-07
7.50076e-07
7.11586e-07
6.84673e-07
6.66666e-07
6.55846e-07
6.51282e-07
6.52538e-07
6.59638e-07
6.73166e-07
6.9422e-07
7.24235e-07
7.64928e-07
8.18506e-07
8.88428e-07
9.85193e-07
1.15182e-06
1.55638e-06
2.79536e-06
6.50428e-06
1.61869e-05
5.7187e-05
4.46077e-05
1.13438e-05
4.08647e-06
1.74972e-06
1.00405e-06
7.31551e-07
6.17076e-07
5.60357e-07
5.2502e-07
4.99491e-07
4.81202e-07
4.68824e-07
4.60708e-07
4.5601e-07
4.54338e-07
4.55296e-07
4.58708e-07
4.64865e-07
4.74369e-07
4.8755e-07
5.04967e-07
5.28081e-07
5.57691e-07
6.04196e-07
7.00817e-07
9.51107e-07
1.69151e-06
4.124e-06
1.15331e-05
4.41996e-05
3.65584e-05
8.63687e-06
2.79754e-06
1.21907e-06
7.41938e-07
5.63949e-07
4.8415e-07
4.45061e-07
4.22965e-07
4.08709e-07
3.98999e-07
3.92483e-07
3.8835e-07
3.86082e-07
3.85368e-07
3.85979e-07
3.87823e-07
3.90981e-07
3.95646e-07
4.01994e-07
4.1039e-07
4.2186e-07
4.39358e-07
4.72481e-07
5.48193e-07
7.25476e-07
1.21618e-06
2.85794e-06
8.73857e-06
3.62234e-05
3.09907e-05
6.93644e-06
2.1064e-06
9.55468e-07
6.16792e-07
4.84821e-07
4.26114e-07
3.96635e-07
3.80477e-07
3.708e-07
3.6465e-07
3.60704e-07
3.58288e-07
3.5701e-07
3.56627e-07
3.5698e-07
3.58002e-07
3.59714e-07
3.62219e-07
3.65716e-07
3.70695e-07
3.7843e-07
3.92114e-07
4.19424e-07
4.78067e-07
6.14777e-07
9.66996e-07
2.15841e-06
6.98819e-06
3.07619e-05
2.70647e-05
5.8252e-06
1.7145e-06
8.08813e-07
5.46593e-07
4.42691e-07
3.9624e-07
3.72886e-07
3.60319e-07
3.53164e-07
3.489e-07
3.46316e-07
3.44801e-07
3.44023e-07
3.43785e-07
3.43973e-07
3.44537e-07
3.45492e-07
3.46938e-07
3.4912e-07
3.52616e-07
3.58748e-07
3.70382e-07
3.93572e-07
4.41641e-07
5.49872e-07
8.21386e-07
1.74775e-06
5.84791e-06
2.68512e-05
2.42836e-05
5.07648e-06
1.47457e-06
7.21285e-07
5.03213e-07
4.17536e-07
3.79147e-07
3.60033e-07
3.49971e-07
3.44473e-07
3.41378e-07
3.3961e-07
3.38624e-07
3.38131e-07
3.37974e-07
3.38067e-07
3.38379e-07
3.38933e-07
3.39836e-07
3.41349e-07
3.44055e-07
3.4917e-07
3.59138e-07
3.7886e-07
4.18987e-07
5.07415e-07
7.30939e-07
1.49524e-06
5.08401e-06
2.41351e-05
2.22158e-05
4.553e-06
1.31884e-06
6.6516e-07
4.73194e-07
4.01177e-07
3.68638e-07
3.52606e-07
3.44366e-07
3.40033e-07
3.37717e-07
3.3647e-07
3.35809e-07
3.35489e-07
3.35383e-07
3.35428e-07
3.35606e-07
3.35948e-07
3.36559e-07
3.3769e-07
3.39873e-07
3.44175e-07
3.52673e-07
3.69484e-07
4.03528e-07
4.77847e-07
6.71907e-07
1.33268e-06
4.55475e-06
2.21213e-05
2.06752e-05
4.18027e-06
1.21527e-06
6.28007e-07
4.55453e-07
3.90851e-07
3.62077e-07
3.48174e-07
3.41223e-07
3.37705e-07
3.35914e-07
3.35001e-07
3.34542e-07
3.34326e-07
3.34253e-07
3.34275e-07
3.34385e-07
3.34615e-07
3.3506e-07
3.35946e-07
3.37741e-07
3.41375e-07
3.48661e-07
3.63233e-07
3.93072e-07
4.59017e-07
6.32286e-07
1.22399e-06
4.17964e-06
2.06171e-05
1.95468e-05
3.9159e-06
1.14546e-06
6.02665e-07
4.43849e-07
3.84254e-07
3.57965e-07
3.45497e-07
3.39427e-07
3.36459e-07
3.35012e-07
3.3431e-07
3.33972e-07
3.33818e-07
3.33765e-07
3.33778e-07
3.33853e-07
3.34022e-07
3.34368e-07
3.35088e-07
3.36592e-07
3.39704e-07
3.46062e-07
3.59006e-07
3.8595e-07
4.46239e-07
6.05174e-07
1.14998e-06
3.91411e-06
1.95115e-05
1.87552e-05
3.73398e-06
1.09809e-06
5.85346e-07
4.36079e-07
3.79981e-07
3.55389e-07
3.43884e-07
3.38396e-07
3.35786e-07
3.34555e-07
3.3398e-07
3.33713e-07
3.33594e-07
3.33551e-07
3.3356e-07
3.33617e-07
3.33751e-07
3.34037e-07
3.34644e-07
3.35939e-07
3.38673e-07
3.44369e-07
3.56178e-07
3.81149e-07
4.37605e-07
5.86896e-07
1.1002e-06
3.7319e-06
1.87335e-05
1.82515e-05
3.61953e-06
1.06835e-06
5.74361e-07
4.31183e-07
3.77349e-07
3.5385e-07
3.42954e-07
3.37827e-07
3.35431e-07
3.34327e-07
3.33823e-07
3.33594e-07
3.33493e-07
3.33456e-07
3.33461e-07
3.33509e-07
3.33624e-07
3.33872e-07
3.34407e-07
3.35565e-07
3.38051e-07
3.43316e-07
3.54397e-07
3.78108e-07
4.32117e-07
5.75229e-07
1.0693e-06
3.6177e-06
1.82377e-05
1.80068e-05
3.56412e-06
1.05389e-06
5.69004e-07
4.28772e-07
3.76061e-07
3.53109e-07
3.42516e-07
3.37566e-07
3.35274e-07
3.3423e-07
3.33758e-07
3.33545e-07
3.33451e-07
3.33416e-07
3.3342e-07
3.33463e-07
3.33568e-07
3.33796e-07
3.34293e-07
3.35378e-07
3.37731e-07
3.4277e-07
3.53475e-07
3.76549e-07
4.29347e-07
5.69494e-07
1.05432e-06
3.56266e-06
1.79975e-05
1.80081e-05
3.56408e-06
1.05372e-06
5.68913e-07
4.28691e-07
3.76002e-07
3.53069e-07
3.42492e-07
3.37552e-07
3.35267e-07
3.34225e-07
3.33755e-07
3.33542e-07
3.33447e-07
3.33411e-07
3.33414e-07
3.33456e-07
3.33559e-07
3.33783e-07
3.34272e-07
3.35342e-07
3.37671e-07
3.4267e-07
3.53323e-07
3.76336e-07
4.29081e-07
5.69235e-07
1.05397e-06
3.56291e-06
1.80009e-05
1.82556e-05
3.61937e-06
1.06779e-06
5.74062e-07
4.30924e-07
3.77162e-07
3.53729e-07
3.42881e-07
3.37787e-07
3.3541e-07
3.34314e-07
3.33813e-07
3.33583e-07
3.3348e-07
3.3344e-07
3.33442e-07
3.33487e-07
3.33597e-07
3.33835e-07
3.34349e-07
3.35465e-07
3.37874e-07
3.43016e-07
3.53928e-07
3.77435e-07
4.31258e-07
5.74365e-07
1.06808e-06
3.61846e-06
1.82488e-05
1.87628e-05
3.73357e-06
1.09695e-06
5.84772e-07
4.35598e-07
3.79646e-07
3.55181e-07
3.43767e-07
3.38336e-07
3.35755e-07
3.34537e-07
3.33963e-07
3.33692e-07
3.33567e-07
3.33518e-07
3.33521e-07
3.33574e-07
3.33704e-07
3.3398e-07
3.34562e-07
3.35794e-07
3.38401e-07
3.43878e-07
3.55363e-07
3.79923e-07
4.35975e-07
5.85178e-07
1.09752e-06
3.73296e-06
1.8755e-05
1.95595e-05
3.91497e-06
1.14333e-06
6.01763e-07
4.43089e-07
3.83754e-07
3.57678e-07
3.45352e-07
3.39363e-07
3.36431e-07
3.34994e-07
3.34286e-07
3.33936e-07
3.33768e-07
3.33702e-07
3.33705e-07
3.33778e-07
3.33949e-07
3.343e-07
3.35008e-07
3.36451e-07
3.39402e-07
3.45441e-07
3.57859e-07
3.84077e-07
4.43586e-07
6.02347e-07
1.14449e-06
3.91474e-06
1.9549e-05
2.06956e-05
4.17863e-06
1.21167e-06
6.26584e-07
4.54352e-07
3.90201e-07
3.61757e-07
3.4805e-07
3.41194e-07
3.37703e-07
3.35904e-07
3.34966e-07
3.34477e-07
3.34233e-07
3.34134e-07
3.3414e-07
3.34249e-07
3.34497e-07
3.34981e-07
3.35906e-07
3.37692e-07
3.41184e-07
3.48084e-07
3.6191e-07
3.90577e-07
4.5505e-07
6.27555e-07
1.21388e-06
4.17885e-06
2.06799e-05
2.22479e-05
4.55045e-06
1.31481e-06
6.63137e-07
4.71857e-07
4.00513e-07
3.68415e-07
3.52606e-07
3.44438e-07
3.40091e-07
3.37724e-07
3.36415e-07
3.35693e-07
3.35317e-07
3.35163e-07
3.35176e-07
3.3535e-07
3.35732e-07
3.36441e-07
3.37714e-07
3.40029e-07
3.4433e-07
3.52504e-07
3.68439e-07
4.00853e-07
4.72721e-07
6.64671e-07
1.31787e-06
4.5514e-06
2.22236e-05
2.43324e-05
5.07174e-06
1.46835e-06
7.18544e-07
5.02076e-07
4.17181e-07
3.79278e-07
3.60331e-07
3.50241e-07
3.44629e-07
3.414e-07
3.39508e-07
3.38414e-07
3.37824e-07
3.37579e-07
3.37604e-07
3.37891e-07
3.38499e-07
3.39574e-07
3.41395e-07
3.44502e-07
3.49964e-07
3.59944e-07
3.78943e-07
4.17228e-07
5.02939e-07
7.20877e-07
1.47373e-06
5.07488e-06
2.42947e-05
2.71347e-05
5.81603e-06
1.70553e-06
8.0568e-07
5.45953e-07
4.43157e-07
3.97134e-07
3.73725e-07
3.60893e-07
3.53435e-07
3.48907e-07
3.46113e-07
3.44428e-07
3.43495e-07
3.43105e-07
3.43155e-07
3.43632e-07
3.44617e-07
3.46287e-07
3.4897e-07
3.5327e-07
3.60389e-07
3.72844e-07
3.96032e-07
4.42341e-07
5.46357e-07
8.08664e-07
1.71442e-06
5.82473e-06
2.70796e-05
3.10673e-05
6.91954e-06
2.0953e-06
9.53196e-07
6.17877e-07
4.87136e-07
4.28381e-07
3.98272e-07
3.81396e-07
3.71128e-07
3.64549e-07
3.60305e-07
3.5766e-07
3.5616e-07
3.55527e-07
3.5562e-07
3.56425e-07
3.58049e-07
3.60724e-07
3.64839e-07
3.71067e-07
3.80721e-07
3.96722e-07
4.2592e-07
4.84335e-07
6.16366e-07
9.55496e-07
2.10778e-06
6.93908e-06
3.10145e-05
3.66594e-05
8.61113e-06
2.78378e-06
1.22148e-06
7.48237e-07
5.69315e-07
4.88469e-07
4.47516e-07
4.2404e-07
4.08883e-07
3.98617e-07
3.91766e-07
3.87386e-07
3.84841e-07
3.83743e-07
3.83903e-07
3.8531e-07
3.88122e-07
3.92662e-07
3.99448e-07
4.09289e-07
4.23583e-07
4.45485e-07
4.84127e-07
5.63248e-07
7.40723e-07
1.21822e-06
2.79813e-06
8.64187e-06
3.65873e-05
4.4737e-05
1.12872e-05
4.08132e-06
1.7711e-06
1.02497e-06
7.45219e-07
6.2284e-07
5.62713e-07
5.2562e-07
4.99171e-07
4.80383e-07
4.67777e-07
4.59499e-07
4.54536e-07
4.52307e-07
4.5255e-07
4.55272e-07
4.60729e-07
4.6944e-07
4.82248e-07
5.00588e-07
5.26363e-07
5.61508e-07
6.17583e-07
7.3124e-07
1.00208e-06
1.74711e-06
4.08684e-06
1.13478e-05
4.46346e-05
5.74732e-05
1.56804e-05
6.5156e-06
2.99576e-06
1.70763e-06
1.21784e-06
9.97744e-07
8.79952e-07
8.02694e-07
7.48215e-07
7.09583e-07
6.82831e-07
6.64963e-07
6.54075e-07
6.49051e-07
6.49417e-07
6.55215e-07
6.66976e-07
6.85806e-07
7.13491e-07
7.52667e-07
8.07014e-07
8.82434e-07
9.94693e-07
1.19917e-06
1.66597e-06
2.94084e-06
6.50228e-06
1.57932e-05
5.74111e-05
8.27443e-05
2.11943e-05
1.1201e-05
5.98816e-06
3.86263e-06
2.91817e-06
2.39397e-06
2.05651e-06
1.82443e-06
1.65744e-06
1.53836e-06
1.45516e-06
1.39908e-06
1.36451e-06
1.34824e-06
1.34891e-06
1.36664e-06
1.40299e-06
1.46134e-06
1.54736e-06
1.66946e-06
1.83878e-06
2.07107e-06
2.40598e-06
2.91283e-06
3.82676e-06
5.9304e-06
1.12198e-05
2.14136e-05
8.29032e-05
0.000104095
2.94745e-05
1.97987e-05
1.40863e-05
1.13429e-05
9.5408e-06
8.21469e-06
7.2266e-06
6.47593e-06
5.90957e-06
5.49368e-06
5.19476e-06
4.98773e-06
4.85696e-06
4.7936e-06
4.79368e-06
4.85729e-06
4.9887e-06
5.19728e-06
5.49952e-06
5.92118e-06
6.49344e-06
7.24905e-06
8.23901e-06
9.56743e-06
1.13761e-05
1.41444e-05
1.99272e-05
2.98812e-05
0.000104819
0.00108726
0.000163796
8.75179e-05
5.85977e-05
4.58156e-05
3.82318e-05
3.30711e-05
2.93478e-05
2.66055e-05
2.45749e-05
2.31167e-05
2.20518e-05
2.13016e-05
2.08212e-05
2.05846e-05
2.05791e-05
2.08045e-05
2.12722e-05
2.2008e-05
2.30582e-05
2.45156e-05
2.65391e-05
2.92637e-05
3.29619e-05
3.80761e-05
4.56614e-05
5.85157e-05
8.76932e-05
0.000164788
0.00109499
0.000992496
0.000146
7.7163e-05
5.13799e-05
3.99378e-05
3.3225e-05
2.87761e-05
2.57027e-05
2.34882e-05
2.18663e-05
2.06475e-05
1.97597e-05
1.91425e-05
1.87556e-05
1.85752e-05
1.85903e-05
1.88013e-05
1.92199e-05
1.98701e-05
2.07893e-05
2.20063e-05
2.36431e-05
2.58728e-05
2.90108e-05
3.34429e-05
4.0028e-05
5.11843e-05
7.65307e-05
0.000143527
0.000973012
9.72117e-05
3.74553e-05
2.28523e-05
1.71391e-05
1.4431e-05
1.27822e-05
1.15174e-05
1.04376e-05
9.50549e-06
8.7306e-06
8.10898e-06
7.63128e-06
7.28725e-06
7.06622e-06
6.95832e-06
6.95759e-06
7.06348e-06
7.28094e-06
7.61962e-06
8.09043e-06
8.70163e-06
9.46182e-06
1.03734e-05
1.14275e-05
1.26549e-05
1.42583e-05
1.69039e-05
2.25129e-05
3.56411e-05
9.5216e-05
7.42896e-05
2.3469e-05
1.37214e-05
8.36463e-06
5.93854e-06
4.76015e-06
4.07744e-06
3.58062e-06
3.16609e-06
2.82201e-06
2.55149e-06
2.35126e-06
2.2114e-06
2.12294e-06
2.07923e-06
2.07686e-06
2.11639e-06
2.20102e-06
2.3367e-06
2.53091e-06
2.79117e-06
3.12469e-06
3.53687e-06
4.04484e-06
4.7548e-06
5.96662e-06
8.41062e-06
1.3642e-05
2.30433e-05
7.38399e-05
5.07723e-05
1.86307e-05
9.42805e-06
4.68773e-06
2.59511e-06
1.77868e-06
1.44481e-06
1.26461e-06
1.1342e-06
1.02663e-06
9.39328e-07
8.741e-07
8.29923e-07
8.02056e-07
7.88301e-07
7.87689e-07
8.00305e-07
8.27182e-07
8.70137e-07
9.31722e-07
1.01596e-06
1.12536e-06
1.26108e-06
1.44995e-06
1.80307e-06
2.65808e-06
4.77053e-06
9.39272e-06
1.83422e-05
5.06076e-05
3.86853e-05
1.42128e-05
6.71732e-06
2.92135e-06
1.40862e-06
8.86586e-07
6.9477e-07
6.10933e-07
5.64526e-07
5.30583e-07
5.03535e-07
4.82708e-07
4.67754e-07
4.58001e-07
4.52678e-07
4.52054e-07
4.56573e-07
4.663e-07
4.80934e-07
5.01426e-07
5.28744e-07
5.64352e-07
6.13156e-07
6.98509e-07
8.93904e-07
1.42099e-06
2.94506e-06
6.66534e-06
1.40524e-05
3.88123e-05
3.15919e-05
1.14875e-05
4.84294e-06
1.96654e-06
9.43409e-07
5.97011e-07
4.67434e-07
4.11922e-07
3.85268e-07
3.69435e-07
3.58128e-07
3.4986e-07
3.43668e-07
3.39365e-07
3.36919e-07
3.36474e-07
3.38173e-07
3.42054e-07
3.48117e-07
3.5677e-07
3.69002e-07
3.8651e-07
4.15243e-07
4.72511e-07
6.00492e-07
9.44248e-07
1.95821e-06
4.79099e-06
1.14155e-05
3.17674e-05
2.70133e-05
9.5507e-06
3.59931e-06
1.41971e-06
7.16244e-07
4.77173e-07
3.78778e-07
3.36444e-07
3.17667e-07
3.08504e-07
3.03043e-07
2.99241e-07
2.96408e-07
2.94387e-07
2.93207e-07
2.92955e-07
2.93708e-07
2.95504e-07
2.98401e-07
3.02645e-07
3.08943e-07
3.19203e-07
3.38849e-07
3.81763e-07
4.79381e-07
7.15273e-07
1.40802e-06
3.55734e-06
9.52379e-06
2.71603e-05
2.38337e-05
8.11746e-06
2.78179e-06
1.09639e-06
5.9068e-07
4.12756e-07
3.37767e-07
3.05143e-07
2.90231e-07
2.83157e-07
2.79496e-07
2.77317e-07
2.75847e-07
2.74839e-07
2.74253e-07
2.74124e-07
2.74497e-07
2.75421e-07
2.76997e-07
2.79508e-07
2.83692e-07
2.91329e-07
3.0658e-07
3.39044e-07
4.12971e-07
5.8869e-07
1.08697e-06
2.76013e-06
8.10754e-06
2.3981e-05
2.15016e-05
7.02819e-06
2.2588e-06
8.9932e-07
5.15723e-07
3.75187e-07
3.17029e-07
2.9054e-07
2.77929e-07
2.71857e-07
2.6887e-07
2.67303e-07
2.66393e-07
2.65834e-07
2.65527e-07
2.65464e-07
2.6567e-07
2.66201e-07
2.67188e-07
2.68945e-07
2.72189e-07
2.7847e-07
2.91065e-07
3.17119e-07
3.74288e-07
5.13824e-07
8.95922e-07
2.24721e-06
7.02231e-06
2.16117e-05
1.97851e-05
6.20252e-06
1.91438e-06
7.78196e-07
4.66395e-07
3.51952e-07
3.04752e-07
2.82693e-07
2.71894e-07
2.66575e-07
2.63967e-07
2.62673e-07
2.62003e-07
2.6164e-07
2.61461e-07
2.61429e-07
2.61558e-07
2.61906e-07
2.62612e-07
2.63984e-07
2.66675e-07
2.72e-07
2.82611e-07
3.04148e-07
3.50382e-07
4.63619e-07
7.75968e-07
1.90526e-06
6.19939e-06
1.98621e-05
1.85175e-05
5.59213e-06
1.68118e-06
7.00029e-07
4.32362e-07
3.36497e-07
2.96693e-07
2.77932e-07
2.68624e-07
2.63968e-07
2.61665e-07
2.60539e-07
2.59987e-07
2.59714e-07
2.59591e-07
2.59573e-07
2.59667e-07
2.59926e-07
2.60482e-07
2.6162e-07
2.63914e-07
2.68487e-07
2.77564e-07
2.9587e-07
3.34969e-07
4.30191e-07
6.98527e-07
1.67449e-06
5.59202e-06
1.85697e-05
1.75933e-05
5.15509e-06
1.52389e-06
6.48993e-07
4.09714e-07
3.25966e-07
2.91195e-07
2.74823e-07
2.66684e-07
2.6259e-07
2.60553e-07
2.59556e-07
2.59075e-07
2.58848e-07
2.58751e-07
2.5874e-07
2.58817e-07
2.59029e-07
2.59498e-07
2.60476e-07
2.6247e-07
2.66462e-07
2.74403e-07
2.9045e-07
3.24783e-07
4.08232e-07
6.48023e-07
1.52024e-06
5.15733e-06
1.76282e-05
1.69466e-05
4.85801e-06
1.42351e-06
6.16581e-07
3.95098e-07
3.19004e-07
2.87518e-07
2.72774e-07
2.65479e-07
2.61817e-07
2.59992e-07
2.59097e-07
2.58666e-07
2.58465e-07
2.58382e-07
2.58374e-07
2.58443e-07
2.58631e-07
2.59044e-07
2.59913e-07
2.6169e-07
2.65267e-07
2.72419e-07
2.86953e-07
3.18185e-07
3.94124e-07
6.15794e-07
1.42243e-06
4.86139e-06
1.69698e-05
1.65368e-05
4.67584e-06
1.36447e-06
5.97536e-07
3.86397e-07
3.14788e-07
2.85263e-07
2.71519e-07
2.64762e-07
2.61386e-07
2.59707e-07
2.58883e-07
2.58485e-07
2.58299e-07
2.58223e-07
2.58219e-07
2.58284e-07
2.58459e-07
2.58841e-07
2.59641e-07
2.61281e-07
2.64595e-07
2.71258e-07
2.84875e-07
3.14257e-07
3.85789e-07
5.97045e-07
1.36388e-06
4.67859e-06
1.65519e-05
1.63396e-05
4.59333e-06
1.33758e-06
5.88776e-07
3.82373e-07
3.12819e-07
2.84201e-07
2.70926e-07
2.64426e-07
2.61189e-07
2.59583e-07
2.58796e-07
2.58415e-07
2.58237e-07
2.58165e-07
2.58162e-07
2.58227e-07
2.58396e-07
2.58765e-07
2.59534e-07
2.61113e-07
2.64307e-07
2.70749e-07
2.83948e-07
3.12484e-07
3.81995e-07
5.88452e-07
1.33709e-06
4.59449e-06
1.63492e-05
1.63387e-05
4.59373e-06
1.33775e-06
5.88841e-07
3.82433e-07
3.12858e-07
2.84222e-07
2.70936e-07
2.64429e-07
2.61189e-07
2.59582e-07
2.58795e-07
2.58415e-07
2.58238e-07
2.58167e-07
2.58165e-07
2.58231e-07
2.58402e-07
2.58774e-07
2.59548e-07
2.61137e-07
2.64349e-07
2.70819e-07
2.84059e-07
3.12645e-07
3.82194e-07
5.88636e-07
1.33743e-06
4.59456e-06
1.63454e-05
1.6534e-05
4.67746e-06
1.36509e-06
5.9776e-07
3.86599e-07
3.14918e-07
2.85334e-07
2.71551e-07
2.64772e-07
2.61385e-07
2.59702e-07
2.5888e-07
2.58485e-07
2.58302e-07
2.5823e-07
2.58229e-07
2.58298e-07
2.58476e-07
2.58866e-07
2.5968e-07
2.6135e-07
2.64719e-07
2.71474e-07
2.85226e-07
3.14776e-07
3.86444e-07
5.9765e-07
1.36497e-06
4.67853e-06
1.65393e-05
1.69414e-05
4.86142e-06
1.42483e-06
6.1705e-07
3.95504e-07
3.19259e-07
2.87653e-07
2.72831e-07
2.65493e-07
2.61811e-07
2.59982e-07
2.59091e-07
2.58668e-07
2.58473e-07
2.58397e-07
2.58396e-07
2.5847e-07
2.58662e-07
2.59082e-07
2.59968e-07
2.6179e-07
2.65459e-07
2.7278e-07
2.87579e-07
3.19161e-07
3.95403e-07
6.17018e-07
1.42478e-06
4.86215e-06
1.69464e-05
1.75846e-05
5.16126e-06
1.5272e-06
6.49785e-07
4.10435e-07
3.264e-07
2.91408e-07
2.749e-07
2.66692e-07
2.62572e-07
2.60533e-07
2.59548e-07
2.59082e-07
2.58869e-07
2.58785e-07
2.58784e-07
2.58866e-07
2.59077e-07
2.59542e-07
2.60526e-07
2.62562e-07
2.66675e-07
2.74872e-07
2.91363e-07
3.26339e-07
4.10395e-07
6.49939e-07
1.52681e-06
5.1611e-06
1.75901e-05
1.85035e-05
5.60153e-06
1.68676e-06
7.01519e-07
4.33596e-07
3.37167e-07
2.96978e-07
2.78006e-07
2.68603e-07
2.63922e-07
2.61632e-07
2.60533e-07
2.6001e-07
2.59765e-07
2.59665e-07
2.59663e-07
2.5976e-07
2.60005e-07
2.60529e-07
2.61631e-07
2.63924e-07
2.68604e-07
2.78002e-07
2.96967e-07
3.37156e-07
4.33638e-07
7.01926e-07
1.68628e-06
5.60039e-06
1.85101e-05
1.97628e-05
6.21514e-06
1.92204e-06
7.81009e-07
4.68349e-07
3.52833e-07
3.05036e-07
2.82697e-07
2.718e-07
2.66483e-07
2.63921e-07
2.62685e-07
2.6207e-07
2.61755e-07
2.61616e-07
2.61612e-07
2.61745e-07
2.62058e-07
2.62678e-07
2.63924e-07
2.66495e-07
2.71817e-07
2.82716e-07
3.05065e-07
3.52897e-07
4.68523e-07
7.81849e-07
1.92255e-06
6.21315e-06
1.97715e-05
2.14659e-05
7.04249e-06
2.27236e-06
9.04954e-07
5.1787e-07
3.7601e-07
3.17099e-07
2.9034e-07
2.777e-07
2.71711e-07
2.68839e-07
2.6738e-07
2.66562e-07
2.6608e-07
2.65843e-07
2.65833e-07
2.66056e-07
2.66532e-07
2.67358e-07