/*--------------------------------*- C++ -*----------------------------------*\
| =========                 |                                                 |
| \\      /  F ield         | OpenFOAM: The Open Source CFD Toolbox           |
|  \\    /   O peration     | Version:  2312                                  |
|   \\  /    A nd           | Website:  www.openfoam.com                      |
|    \\/     M anipulation  |                                                 |
\*---------------------------------------------------------------------------*/
FoamFile
{
    version     2.0;
    format      ascii;
    arch        "LSB;label=32;scalar=64";
    class       volScalarField;
    location    "150";
    object      k;
}
// * * * * * * * * * * * * * * * * * * * * * * * * * * * * * * * * * * * * * //

dimensions      [0 2 -2 0 0 0 0];

internalField   nonuniform List<scalar> 
27000
(
0.000259809
0.000129823
0.000107581
9.56319e-05
9.00226e-05
8.65411e-05
8.39063e-05
8.16146e-05
7.97141e-05
7.81719e-05
7.68784e-05
7.58636e-05
7.51228e-05
7.46451e-05
7.44229e-05
7.44532e-05
7.47376e-05
7.52814e-05
7.60922e-05
7.7169e-05
7.84606e-05
8.00471e-05
8.19898e-05
8.43057e-05
8.69281e-05
9.0328e-05
9.5742e-05
0.000107344
0.000129116
0.000258327
9.84289e-05
2.15393e-05
2.82853e-05
3.06717e-05
3.24464e-05
3.3606e-05
3.43359e-05
3.4764e-05
3.49927e-05
3.51262e-05
3.52097e-05
3.52643e-05
3.53004e-05
3.5323e-05
3.53348e-05
3.5336e-05
3.5326e-05
3.53023e-05
3.5261e-05
3.51955e-05
3.50964e-05
3.49502e-05
3.47104e-05
3.4279e-05
3.35547e-05
3.24071e-05
3.06466e-05
2.81824e-05
2.13643e-05
9.80157e-05
0.000101457
3.51025e-05
2.88424e-05
2.72477e-05
2.79598e-05
2.88863e-05
2.96717e-05
3.03301e-05
3.08438e-05
3.12357e-05
3.15307e-05
3.17473e-05
3.18976e-05
3.19902e-05
3.20304e-05
3.20196e-05
3.19565e-05
3.18383e-05
3.16609e-05
3.14195e-05
3.1108e-05
3.07159e-05
3.02249e-05
2.96191e-05
2.89059e-05
2.80607e-05
2.74153e-05
2.88814e-05
3.47178e-05
0.000101406
9.49206e-05
3.53288e-05
2.87169e-05
2.84498e-05
2.9293e-05
3.01261e-05
3.08018e-05
3.13407e-05
3.17651e-05
3.20912e-05
3.23355e-05
3.25123e-05
3.26328e-05
3.27049e-05
3.27334e-05
3.27205e-05
3.2666e-05
3.25686e-05
3.24263e-05
3.22366e-05
3.19954e-05
3.16954e-05
3.13226e-05
3.08593e-05
3.02711e-05
2.95113e-05
2.86692e-05
2.87835e-05
3.51615e-05
9.50975e-05
9.02922e-05
3.42575e-05
2.90045e-05
2.9615e-05
3.05897e-05
3.13513e-05
3.19252e-05
3.23601e-05
3.26907e-05
3.29384e-05
3.31203e-05
3.32493e-05
3.33352e-05
3.33848e-05
3.34028e-05
3.33915e-05
3.33518e-05
3.32833e-05
3.31851e-05
3.30552e-05
3.28896e-05
3.26793e-05
3.24058e-05
3.20392e-05
3.15261e-05
3.07863e-05
2.97622e-05
2.90148e-05
3.41685e-05
9.05917e-05
8.65526e-05
3.39468e-05
2.94435e-05
3.04335e-05
3.14602e-05
3.21852e-05
3.2692e-05
3.30517e-05
3.33098e-05
3.34944e-05
3.36244e-05
3.37131e-05
3.37697e-05
3.3801e-05
3.38111e-05
3.38027e-05
3.37768e-05
3.37338e-05
3.36726e-05
3.35906e-05
3.34816e-05
3.33326e-05
3.31202e-05
3.28047e-05
3.23238e-05
3.15844e-05
3.04916e-05
2.94082e-05
3.38897e-05
8.68726e-05
8.33713e-05
3.39807e-05
3.01109e-05
3.11126e-05
3.20841e-05
3.27512e-05
3.31977e-05
3.34961e-05
3.36954e-05
3.38281e-05
3.39152e-05
3.39705e-05
3.40034e-05
3.402e-05
3.40243e-05
3.40186e-05
3.40042e-05
3.39812e-05
3.39483e-05
3.39019e-05
3.38336e-05
3.37275e-05
3.35565e-05
3.32782e-05
3.28304e-05
3.21302e-05
3.10942e-05
3.00183e-05
3.39297e-05
8.36642e-05
8.05804e-05
3.41156e-05
3.078e-05
3.1696e-05
3.25641e-05
3.31512e-05
3.35323e-05
3.37734e-05
3.39222e-05
3.40119e-05
3.40643e-05
3.40934e-05
3.41081e-05
3.41138e-05
3.41139e-05
3.41104e-05
3.41042e-05
3.40955e-05
3.40826e-05
3.40611e-05
3.4022e-05
3.39482e-05
3.38125e-05
3.3574e-05
3.31775e-05
3.25535e-05
3.16345e-05
3.06794e-05
3.40856e-05
8.08787e-05
7.80843e-05
3.42524e-05
3.13274e-05
3.21613e-05
3.29308e-05
3.34381e-05
3.37545e-05
3.39422e-05
3.40473e-05
3.4102e-05
3.41276e-05
3.41375e-05
3.41393e-05
3.41377e-05
3.41351e-05
3.4133e-05
3.41322e-05
3.41324e-05
3.41323e-05
3.41276e-05
3.41094e-05
3.40619e-05
3.39595e-05
3.37654e-05
3.343e-05
3.28923e-05
3.20908e-05
3.1245e-05
3.4241e-05
7.83189e-05
7.59765e-05
3.43707e-05
3.1755e-05
3.25169e-05
3.32019e-05
3.3641e-05
3.39005e-05
3.4042e-05
3.4111e-05
3.41385e-05
3.41447e-05
3.41415e-05
3.41352e-05
3.41294e-05
3.41254e-05
3.41242e-05
3.41261e-05
3.41313e-05
3.41385e-05
3.41443e-05
3.41412e-05
3.41152e-05
3.40436e-05
3.3893e-05
3.36175e-05
3.31583e-05
3.24573e-05
3.16988e-05
3.43714e-05
7.6144e-05
7.42481e-05
3.44677e-05
3.20852e-05
3.2787e-05
3.34024e-05
3.37833e-05
3.39952e-05
3.40992e-05
3.414e-05
3.41477e-05
3.41408e-05
3.41295e-05
3.41188e-05
3.41109e-05
3.41064e-05
3.41056e-05
3.41089e-05
3.41163e-05
3.41271e-05
3.41391e-05
3.41464e-05
3.41374e-05
3.40922e-05
3.39801e-05
3.37569e-05
3.33645e-05
3.27432e-05
3.20504e-05
3.44741e-05
7.43617e-05
7.2883e-05
3.45427e-05
3.23327e-05
3.2987e-05
3.35473e-05
3.38815e-05
3.40557e-05
3.41308e-05
3.4151e-05
3.41451e-05
3.41299e-05
3.41143e-05
3.41017e-05
3.40932e-05
3.40888e-05
3.40883e-05
3.40919e-05
3.40998e-05
3.4112e-05
3.41273e-05
3.41415e-05
3.41452e-05
3.41208e-05
3.40396e-05
3.38584e-05
3.35183e-05
3.2957e-05
3.23122e-05
3.45507e-05
7.29579e-05
7.18693e-05
3.45966e-05
3.25083e-05
3.31277e-05
3.36472e-05
3.39467e-05
3.40931e-05
3.41475e-05
3.41536e-05
3.4139e-05
3.41192e-05
3.41015e-05
3.40885e-05
3.40802e-05
3.40761e-05
3.40758e-05
3.40792e-05
3.4087e-05
3.40995e-05
3.41164e-05
3.41348e-05
3.41472e-05
3.41379e-05
3.40793e-05
3.39288e-05
3.36266e-05
3.3108e-05
3.24965e-05
3.46042e-05
7.19183e-05
7.11982e-05
3.4631e-05
3.26204e-05
3.32171e-05
3.37098e-05
3.39864e-05
3.41147e-05
3.41559e-05
3.41532e-05
3.41337e-05
3.41115e-05
3.40931e-05
3.40802e-05
3.40723e-05
3.40686e-05
3.40683e-05
3.40716e-05
3.4079e-05
3.40913e-05
3.41089e-05
3.41298e-05
3.41476e-05
3.41479e-05
3.41041e-05
3.39735e-05
3.36959e-05
3.32046e-05
3.2614e-05
3.46376e-05
7.12308e-05
7.08634e-05
3.46476e-05
3.26751e-05
3.32608e-05
3.37402e-05
3.40055e-05
3.41247e-05
3.41594e-05
3.41527e-05
3.41308e-05
3.41076e-05
3.4089e-05
3.40763e-05
3.40687e-05
3.40652e-05
3.4065e-05
3.40682e-05
3.40754e-05
3.40876e-05
3.41055e-05
3.41277e-05
3.41482e-05
3.41533e-05
3.4117e-05
3.39964e-05
3.37308e-05
3.32528e-05
3.26715e-05
3.4653e-05
7.08864e-05
7.08611e-05
3.46473e-05
3.26755e-05
3.32615e-05
3.3741e-05
3.40062e-05
3.41253e-05
3.41598e-05
3.41529e-05
3.4131e-05
3.41077e-05
3.40891e-05
3.40764e-05
3.40688e-05
3.40654e-05
3.40652e-05
3.40685e-05
3.40757e-05
3.4088e-05
3.41061e-05
3.41285e-05
3.41495e-05
3.41552e-05
3.41195e-05
3.39994e-05
3.37341e-05
3.32557e-05
3.26731e-05
3.46517e-05
7.08795e-05
7.11912e-05
3.46301e-05
3.26217e-05
3.32194e-05
3.37122e-05
3.39886e-05
3.41164e-05
3.41571e-05
3.4154e-05
3.41342e-05
3.41119e-05
3.40934e-05
3.40805e-05
3.40727e-05
3.40691e-05
3.4069e-05
3.40724e-05
3.40799e-05
3.40925e-05
3.41106e-05
3.41323e-05
3.41513e-05
3.41533e-05
3.41115e-05
3.39828e-05
3.37061e-05
3.3214e-05
3.2619e-05
3.46337e-05
7.12089e-05
7.18567e-05
3.4595e-05
3.25106e-05
3.31318e-05
3.36514e-05
3.39503e-05
3.40958e-05
3.41494e-05
3.41547e-05
3.41398e-05
3.41197e-05
3.4102e-05
3.40891e-05
3.4081e-05
3.40771e-05
3.4077e-05
3.40806e-05
3.40886e-05
3.41013e-05
3.41188e-05
3.41383e-05
3.41525e-05
3.41461e-05
3.40911e-05
3.39443e-05
3.36445e-05
3.31251e-05
3.25065e-05
3.4598e-05
7.18773e-05
7.28635e-05
3.45406e-05
3.23366e-05
3.29934e-05
3.35535e-05
3.38864e-05
3.40591e-05
3.41329e-05
3.41521e-05
3.41458e-05
3.41305e-05
3.4115e-05
3.41027e-05
3.40945e-05
3.40905e-05
3.40903e-05
3.40941e-05
3.41021e-05
3.41143e-05
3.41298e-05
3.41448e-05
3.41506e-05
3.41301e-05
3.40544e-05
3.38795e-05
3.35445e-05
3.29837e-05
3.23293e-05
3.45427e-05
7.28907e-05
7.42196e-05
3.44654e-05
3.20921e-05
3.27966e-05
3.34107e-05
3.37891e-05
3.39986e-05
3.41009e-05
3.41407e-05
3.4148e-05
3.41412e-05
3.41304e-05
3.41204e-05
3.41131e-05
3.41093e-05
3.41091e-05
3.41125e-05
3.41195e-05
3.41297e-05
3.41408e-05
3.41479e-05
3.41403e-05
3.40993e-05
3.39946e-05
3.37814e-05
3.33989e-05
3.2782e-05
3.20792e-05
3.44658e-05
7.42579e-05
7.59369e-05
3.43692e-05
3.1767e-05
3.253e-05
3.32116e-05
3.36465e-05
3.39027e-05
3.40422e-05
3.41103e-05
3.41379e-05
3.41448e-05
3.41426e-05
3.41376e-05
3.4133e-05
3.41302e-05
3.41297e-05
3.41319e-05
3.41363e-05
3.41416e-05
3.41447e-05
3.41389e-05
3.4112e-05
3.40432e-05
3.39009e-05
3.36395e-05
3.31975e-05
3.25093e-05
3.1745e-05
3.43659e-05
7.59914e-05
7.80322e-05
3.42522e-05
3.13438e-05
3.2176e-05
3.29394e-05
3.34409e-05
3.37534e-05
3.39394e-05
3.40443e-05
3.41001e-05
3.41274e-05
3.41391e-05
3.4143e-05
3.41434e-05
3.41426e-05
3.41419e-05
3.41414e-05
3.41405e-05
3.41371e-05
3.4127e-05
3.41022e-05
3.40489e-05
3.39449e-05
3.3757e-05
3.34381e-05
3.29262e-05
3.21505e-05
3.13111e-05
3.4243e-05
7.81078e-05
8.05173e-05
3.41174e-05
3.07979e-05
3.17076e-05
3.25674e-05
3.31481e-05
3.35258e-05
3.37662e-05
3.39164e-05
3.40085e-05
3.40639e-05
3.40961e-05
3.41138e-05
3.41224e-05
3.41253e-05
3.4124e-05
3.41189e-05
3.41091e-05
3.40918e-05
3.40619e-05
3.40108e-05
3.39238e-05
3.37779e-05
3.35383e-05
3.31552e-05
3.25617e-05
3.1683e-05
3.07558e-05
3.40993e-05
8.06155e-05
8.33169e-05
3.39851e-05
3.01251e-05
3.11161e-05
3.20781e-05
3.27396e-05
3.31844e-05
3.34841e-05
3.36868e-05
3.38238e-05
3.39154e-05
3.3975e-05
3.40119e-05
3.40324e-05
3.40405e-05
3.40384e-05
3.40265e-05
3.40035e-05
3.39662e-05
3.39092e-05
3.38234e-05
3.36949e-05
3.35013e-05
3.32078e-05
3.27621e-05
3.20889e-05
3.1103e-05
3.00818e-05
3.39566e-05
8.34159e-05
8.64965e-05
3.39516e-05
2.9447e-05
3.04257e-05
3.14436e-05
3.21649e-05
3.26724e-05
3.3036e-05
3.32997e-05
3.34906e-05
3.36264e-05
3.37203e-05
3.37816e-05
3.38174e-05
3.38325e-05
3.38293e-05
3.38084e-05
3.3768e-05
3.37045e-05
3.36122e-05
3.34826e-05
3.33029e-05
3.30538e-05
3.27042e-05
3.22044e-05
3.14777e-05
3.04365e-05
2.94222e-05
3.3918e-05
8.66068e-05
9.02431e-05
3.42657e-05
2.9004e-05
2.95993e-05
3.05659e-05
3.13256e-05
3.19026e-05
3.23437e-05
3.26819e-05
3.29372e-05
3.31255e-05
3.32599e-05
3.33503e-05
3.34046e-05
3.34282e-05
3.3424e-05
3.3392e-05
3.33304e-05
3.32348e-05
3.30991e-05
3.29149e-05
3.26712e-05
3.23512e-05
3.19321e-05
3.13743e-05
3.06208e-05
2.96365e-05
2.89938e-05
3.42193e-05
9.03475e-05
9.48954e-05
3.53503e-05
2.87142e-05
2.8435e-05
2.92672e-05
3.01024e-05
3.07826e-05
3.13286e-05
3.17609e-05
3.20942e-05
3.23444e-05
3.25252e-05
3.2649e-05
3.27248e-05
3.27587e-05
3.27536e-05
3.27094e-05
3.26235e-05
3.24908e-05
3.2304e-05
3.20533e-05
3.17269e-05
3.13111e-05
3.07905e-05
3.01398e-05
2.93283e-05
2.84861e-05
2.87219e-05
3.5272e-05
9.49562e-05
0.000101461
3.51767e-05
2.88402e-05
2.72275e-05
2.79451e-05
2.8876e-05
2.96622e-05
3.03265e-05
3.08462e-05
3.12422e-05
3.15396e-05
3.1757e-05
3.1908e-05
3.20021e-05
3.20455e-05
3.20408e-05
3.19875e-05
3.18827e-05
3.17203e-05
3.14918e-05
3.1186e-05
3.07869e-05
3.02732e-05
2.96266e-05
2.88688e-05
2.79706e-05
2.72805e-05
2.88533e-05
3.50187e-05
0.000101436
9.85023e-05
2.15386e-05
2.82776e-05
3.06636e-05
3.24451e-05
3.36066e-05
3.43359e-05
3.47633e-05
3.49909e-05
3.51225e-05
3.5204e-05
3.52565e-05
3.52903e-05
3.53108e-05
3.53206e-05
3.53206e-05
3.53105e-05
3.52887e-05
3.52518e-05
3.5194e-05
3.51056e-05
3.49667e-05
3.47327e-05
3.43016e-05
3.35743e-05
3.24202e-05
3.06484e-05
2.82364e-05
2.14607e-05
9.83347e-05
0.000260216
0.000130049
0.000107699
9.5677e-05
9.0023e-05
8.65194e-05
8.38755e-05
8.1581e-05
7.96794e-05
7.81279e-05
7.68306e-05
7.58144e-05
7.50704e-05
7.45856e-05
7.4351e-05
7.43624e-05
7.46203e-05
7.51297e-05
7.58998e-05
7.69401e-05
7.82472e-05
7.98083e-05
8.17265e-05
8.40318e-05
8.66727e-05
9.0147e-05
9.57274e-05
0.000107616
0.000129781
0.00025965
0.00020743
0.000105296
9.1962e-05
8.491e-05
8.27544e-05
8.16724e-05
8.0822e-05
7.98289e-05
7.89304e-05
7.81881e-05
7.77062e-05
7.73398e-05
7.7059e-05
7.68592e-05
7.6739e-05
7.66967e-05
7.67298e-05
7.6836e-05
7.70159e-05
7.72914e-05
7.7813e-05
7.84897e-05
7.93014e-05
8.0125e-05
8.09716e-05
8.22318e-05
8.47868e-05
9.25236e-05
0.000106784
0.000210692
7.69103e-05
2.29639e-05
4.03442e-05
4.14551e-05
4.2877e-05
4.32772e-05
4.31098e-05
4.27764e-05
4.22871e-05
4.17814e-05
4.13436e-05
4.09996e-05
4.0749e-05
4.05859e-05
4.0506e-05
4.05079e-05
4.05931e-05
4.07674e-05
4.10395e-05
4.14187e-05
4.18998e-05
4.24421e-05
4.2967e-05
4.33833e-05
4.36757e-05
4.33337e-05
4.20514e-05
4.11026e-05
2.39343e-05
7.80782e-05
8.92957e-05
4.86105e-05
4.04872e-05
3.30457e-05
3.0318e-05
2.9663e-05
2.94416e-05
2.91435e-05
2.88425e-05
2.86001e-05
2.84412e-05
2.83553e-05
2.83214e-05
2.83194e-05
2.83355e-05
2.83705e-05
2.84321e-05
2.85285e-05
2.86679e-05
2.88542e-05
2.9081e-05
2.93241e-05
2.95421e-05
2.96617e-05
2.96184e-05
3.00004e-05
3.26159e-05
4.05015e-05
5.0078e-05
8.97346e-05
8.58854e-05
4.81906e-05
3.5938e-05
2.87442e-05
2.5516e-05
2.48058e-05
2.48986e-05
2.51142e-05
2.53051e-05
2.54711e-05
2.5645e-05
2.58228e-05
2.59826e-05
2.61109e-05
2.61995e-05
2.62477e-05
2.62581e-05
2.62316e-05
2.61651e-05
2.6049e-05
2.5865e-05
2.55905e-05
2.52222e-05
2.47225e-05
2.42771e-05
2.46685e-05
2.7908e-05
3.57113e-05
4.91895e-05
8.56754e-05
8.46243e-05
4.45966e-05
3.22621e-05
2.63401e-05
2.45396e-05
2.45318e-05
2.49183e-05
2.53239e-05
2.56635e-05
2.59418e-05
2.61789e-05
2.63833e-05
2.6553e-05
2.66826e-05
2.67672e-05
2.68053e-05
2.67958e-05
2.67354e-05
2.66161e-05
2.64243e-05
2.61401e-05
2.57374e-05
2.5198e-05
2.45249e-05
2.38816e-05
2.38214e-05
2.57946e-05
3.22755e-05
4.52761e-05
8.41167e-05
8.35261e-05
4.16844e-05
2.99806e-05
2.53528e-05
2.47066e-05
2.51267e-05
2.56873e-05
2.61679e-05
2.65439e-05
2.68342e-05
2.70628e-05
2.7246e-05
2.73904e-05
2.74968e-05
2.75636e-05
2.75892e-05
2.75709e-05
2.75036e-05
2.73783e-05
2.7181e-05
2.68925e-05
2.64928e-05
2.59685e-05
2.53317e-05
2.46639e-05
2.42765e-05
2.51865e-05
3.01728e-05
4.20897e-05
8.30295e-05
8.23453e-05
3.98662e-05
2.83114e-05
2.49578e-05
2.50512e-05
2.57446e-05
2.63995e-05
2.6914e-05
2.72977e-05
2.75798e-05
2.77889e-05
2.79457e-05
2.80624e-05
2.81445e-05
2.81937e-05
2.82094e-05
2.81888e-05
2.81263e-05
2.80128e-05
2.78352e-05
2.7577e-05
2.72206e-05
2.67527e-05
2.61735e-05
2.55166e-05
2.49356e-05
2.50809e-05
2.86789e-05
4.00496e-05
8.19456e-05
8.13362e-05
3.8656e-05
2.72891e-05
2.48842e-05
2.54037e-05
2.62465e-05
2.69496e-05
2.74766e-05
2.78553e-05
2.81222e-05
2.83092e-05
2.84406e-05
2.85323e-05
2.85934e-05
2.86282e-05
2.86371e-05
2.86181e-05
2.85659e-05
2.84717e-05
2.8323e-05
2.81041e-05
2.77967e-05
2.73833e-05
2.68501e-05
2.61969e-05
2.54866e-05
2.51666e-05
2.76688e-05
3.87598e-05
8.09075e-05
8.06246e-05
3.78409e-05
2.68168e-05
2.50963e-05
2.57822e-05
2.66627e-05
2.73697e-05
2.78863e-05
2.82476e-05
2.84928e-05
2.8656e-05
2.87635e-05
2.88336e-05
2.88774e-05
2.89008e-05
2.89057e-05
2.88906e-05
2.88507e-05
2.87777e-05
2.86595e-05
2.84798e-05
2.82186e-05
2.78527e-05
2.73574e-05
2.67124e-05
2.59423e-05
2.53864e-05
2.71133e-05
3.78889e-05
8.02963e-05
7.9992e-05
3.7268e-05
2.66332e-05
2.53926e-05
2.61497e-05
2.70145e-05
2.76946e-05
2.81832e-05
2.85168e-05
2.87356e-05
2.88742e-05
2.89597e-05
2.90112e-05
2.90411e-05
2.9056e-05
2.90587e-05
2.90481e-05
2.90202e-05
2.89671e-05
2.88769e-05
2.87325e-05
2.85119e-05
2.81873e-05
2.77265e-05
2.70984e-05
2.63067e-05
2.56189e-05
2.682e-05
3.72849e-05
7.97645e-05
7.94431e-05
3.6861e-05
2.6572e-05
2.56723e-05
2.64637e-05
2.73018e-05
2.79447e-05
2.83975e-05
2.86988e-05
2.88895e-05
2.90043e-05
2.90702e-05
2.91065e-05
2.91254e-05
2.91342e-05
2.91357e-05
2.91294e-05
2.91118e-05
2.90755e-05
2.90086e-05
2.88939e-05
2.87076e-05
2.84187e-05
2.79901e-05
2.73833e-05
2.65879e-05
2.5827e-05
2.66778e-05
3.68637e-05
7.92931e-05
7.89924e-05
3.65771e-05
2.65639e-05
2.59059e-05
2.67151e-05
2.75258e-05
2.81324e-05
2.85498e-05
2.88199e-05
2.89843e-05
2.90781e-05
2.91277e-05
2.91519e-05
2.91627e-05
2.91671e-05
2.9168e-05
2.91652e-05
2.91555e-05
2.9132e-05
2.90834e-05
2.89922e-05
2.88336e-05
2.85746e-05
2.81746e-05
2.75905e-05
2.68025e-05
2.6004e-05
2.66218e-05
3.65736e-05
7.88959e-05
7.86486e-05
3.63868e-05
2.65811e-05
2.60861e-05
2.69033e-05
2.76901e-05
2.82663e-05
2.86539e-05
2.88978e-05
2.90408e-05
2.91177e-05
2.91548e-05
2.91702e-05
2.91755e-05
2.91769e-05
2.91775e-05
2.91771e-05
2.91728e-05
2.91585e-05
2.91229e-05
2.90489e-05
2.89111e-05
2.86754e-05
2.8299e-05
2.77358e-05
2.69598e-05
2.61444e-05
2.66111e-05
3.6381e-05
7.85868e-05
7.84168e-05
3.62711e-05
2.66035e-05
2.62083e-05
2.70281e-05
2.77977e-05
2.83521e-05
2.87187e-05
2.89441e-05
2.9072e-05
2.91375e-05
2.91662e-05
2.9176e-05
2.91777e-05
2.91774e-05
2.91777e-05
2.91787e-05
2.91778e-05
2.91691e-05
2.91418e-05
2.90788e-05
2.89547e-05
2.87347e-05
2.8375e-05
2.78274e-05
2.70627e-05
2.62416e-05
2.66178e-05
3.6265e-05
7.83765e-05
7.8301e-05
3.62187e-05
2.66179e-05
2.62687e-05
2.70893e-05
2.785e-05
2.83935e-05
2.87493e-05
2.89655e-05
2.90858e-05
2.91454e-05
2.91701e-05
2.91771e-05
2.9177e-05
2.91759e-05
2.91761e-05
2.91777e-05
2.91783e-05
2.91721e-05
2.91486e-05
2.90907e-05
2.8973e-05
2.87604e-05
2.84086e-05
2.78688e-05
2.71101e-05
2.62876e-05
2.66242e-05
3.62132e-05
7.82734e-05
7.83047e-05
3.62191e-05
2.66164e-05
2.62658e-05
2.70866e-05
2.78478e-05
2.8392e-05
2.87483e-05
2.89648e-05
2.90854e-05
2.91452e-05
2.91699e-05
2.91769e-05
2.91769e-05
2.91756e-05
2.91758e-05
2.91773e-05
2.91778e-05
2.91713e-05
2.91474e-05
2.90889e-05
2.89701e-05
2.87559e-05
2.84022e-05
2.78604e-05
2.71002e-05
2.6278e-05
2.662e-05
3.6215e-05
7.82835e-05
7.84285e-05
3.62721e-05
2.65986e-05
2.61989e-05
2.70195e-05
2.77909e-05
2.83474e-05
2.87156e-05
2.89423e-05
2.9071e-05
2.91369e-05
2.91658e-05
2.91755e-05
2.91771e-05
2.91766e-05
2.91767e-05
2.91774e-05
2.91761e-05
2.91668e-05
2.91384e-05
2.90735e-05
2.89461e-05
2.87213e-05
2.83554e-05
2.78012e-05
2.70312e-05
2.621e-05
2.66033e-05
3.62698e-05
7.8409e-05
7.86701e-05
3.63882e-05
2.65714e-05
2.60683e-05
2.68874e-05
2.76782e-05
2.82583e-05
2.8649e-05
2.88952e-05
2.90394e-05
2.91169e-05
2.91541e-05
2.91694e-05
2.91743e-05
2.91753e-05
2.91754e-05
2.91746e-05
2.91699e-05
2.91549e-05
2.9118e-05
2.90412e-05
2.88981e-05
2.8654e-05
2.8266e-05
2.76892e-05
2.69012e-05
2.6083e-05
2.65803e-05
3.63878e-05
7.86484e-05
7.90272e-05
3.65785e-05
2.65465e-05
2.58759e-05
2.669e-05
2.75082e-05
2.81217e-05
2.8544e-05
2.88172e-05
2.89832e-05
2.90774e-05
2.91267e-05
2.91504e-05
2.91605e-05
2.91641e-05
2.91643e-05
2.9161e-05
2.91511e-05
2.91275e-05
2.90781e-05
2.89842e-05
2.88192e-05
2.85483e-05
2.81299e-05
2.75218e-05
2.67095e-05
2.58993e-05
2.65636e-05
3.65803e-05
7.89991e-05
7.94963e-05
3.68614e-05
2.65393e-05
2.5624e-05
2.64273e-05
2.72792e-05
2.7933e-05
2.83927e-05
2.86977e-05
2.88896e-05
2.90041e-05
2.9069e-05
2.91038e-05
2.91213e-05
2.91286e-05
2.9129e-05
2.91223e-05
2.91051e-05
2.907e-05
2.90045e-05
2.88894e-05
2.86979e-05
2.83951e-05
2.79406e-05
2.72954e-05
2.64548e-05
2.5662e-05
2.65721e-05
3.68663e-05
7.94568e-05
8.00701e-05
3.72642e-05
2.65688e-05
2.53206e-05
2.61034e-05
2.69911e-05
2.76865e-05
2.81833e-05
2.85199e-05
2.87383e-05
2.8875e-05
2.89578e-05
2.90065e-05
2.90336e-05
2.90461e-05
2.90468e-05
2.90356e-05
2.90089e-05
2.89596e-05
2.8875e-05
2.87362e-05
2.85161e-05
2.81804e-05
2.76893e-05
2.70062e-05
2.61381e-05
2.53783e-05
2.6631e-05
3.72751e-05
8.00131e-05
8.0734e-05
3.78282e-05
2.67234e-05
2.50087e-05
2.57363e-05
2.6649e-05
2.73737e-05
2.78972e-05
2.82583e-05
2.84996e-05
2.86577e-05
2.876e-05
2.88251e-05
2.88644e-05
2.88836e-05
2.8885e-05
2.88682e-05
2.88301e-05
2.8764e-05
2.86584e-05
2.8495e-05
2.82479e-05
2.78836e-05
2.73634e-05
2.6653e-05
2.57691e-05
2.50819e-05
2.68197e-05
3.78507e-05
8.0653e-05
8.14782e-05
3.86302e-05
2.71791e-05
2.48148e-05
2.53823e-05
2.62601e-05
2.69777e-05
2.75051e-05
2.78766e-05
2.81334e-05
2.83104e-05
2.84331e-05
2.85172e-05
2.85714e-05
2.85994e-05
2.86021e-05
2.85788e-05
2.85273e-05
2.84424e-05
2.83146e-05
2.81279e-05
2.78584e-05
2.74749e-05
2.69426e-05
2.62354e-05
2.53915e-05
2.48816e-05
2.73062e-05
3.86727e-05
8.13714e-05
8.24816e-05
3.98235e-05
2.82132e-05
2.49329e-05
2.5083e-05
2.5806e-05
2.64631e-05
2.69649e-05
2.73297e-05
2.7593e-05
2.7786e-05
2.79301e-05
2.80365e-05
2.81091e-05
2.81482e-05
2.8153e-05
2.81226e-05
2.80559e-05
2.79505e-05
2.78002e-05
2.75926e-05
2.73069e-05
2.69158e-05
2.63921e-05
2.57293e-05
2.50353e-05
2.49582e-05
2.83453e-05
3.98961e-05
8.2392e-05
8.36814e-05
4.16265e-05
2.995e-05
2.54072e-05
2.48187e-05
2.5249e-05
2.57898e-05
2.62381e-05
2.65802e-05
2.68414e-05
2.7048e-05
2.72157e-05
2.73482e-05
2.7443e-05
2.74959e-05
2.75039e-05
2.74661e-05
2.73832e-05
2.72564e-05
2.70843e-05
2.68599e-05
2.65659e-05
2.61792e-05
2.56825e-05
2.51044e-05
2.46729e-05
2.53323e-05
2.99995e-05
4.17219e-05
8.35754e-05
8.47907e-05
4.44143e-05
3.22707e-05
2.6475e-05
2.47162e-05
2.47001e-05
2.50428e-05
2.53941e-05
2.56863e-05
2.59292e-05
2.61408e-05
2.63303e-05
2.64896e-05
2.66077e-05
2.66754e-05
2.66877e-05
2.66441e-05
2.65477e-05
2.64036e-05
2.62173e-05
2.59902e-05
2.57114e-05
2.53591e-05
2.49284e-05
2.4507e-05
2.44776e-05
2.62818e-05
3.22588e-05
4.46243e-05
8.46657e-05
8.59599e-05
4.78787e-05
3.59769e-05
2.89214e-05
2.57248e-05
2.4954e-05
2.49911e-05
2.51495e-05
2.5295e-05
2.54302e-05
2.55763e-05
2.57467e-05
2.59033e-05
2.60242e-05
2.60958e-05
2.61124e-05
2.60745e-05
2.59874e-05
2.5861e-05
2.57093e-05
2.55539e-05
2.53927e-05
2.5189e-05
2.49363e-05
2.47875e-05
2.54445e-05
2.86815e-05
3.58727e-05
4.81693e-05
8.59012e-05
8.91716e-05
4.80709e-05
4.04548e-05
3.32548e-05
3.04479e-05
2.97262e-05
2.9463e-05
2.9111e-05
2.87786e-05
2.85264e-05
2.83702e-05
2.82949e-05
2.827e-05
2.82707e-05
2.82812e-05
2.82958e-05
2.83168e-05
2.83514e-05
2.84147e-05
2.85276e-05
2.87107e-05
2.89697e-05
2.92714e-05
2.9544e-05
2.97019e-05
3.03147e-05
3.30228e-05
4.04169e-05
4.84912e-05
8.92828e-05
7.65862e-05
2.27291e-05
4.01497e-05
4.13426e-05
4.27818e-05
4.32114e-05
4.30815e-05
4.27473e-05
4.22635e-05
4.17687e-05
4.13416e-05
4.10071e-05
4.07636e-05
4.06054e-05
4.05281e-05
4.05297e-05
4.06108e-05
4.07745e-05
4.10266e-05
4.13738e-05
4.18161e-05
4.23276e-05
4.28238e-05
4.31619e-05
4.33222e-05
4.2906e-05
4.14856e-05
4.03447e-05
2.3021e-05
7.69297e-05
0.000206294
0.000104729
9.1708e-05
8.48709e-05
8.28347e-05
8.18108e-05
8.09547e-05
7.99542e-05
7.90467e-05
7.83123e-05
7.78274e-05
7.74535e-05
7.71702e-05
7.69765e-05
7.68729e-05
7.68595e-05
7.69356e-05
7.71002e-05
7.73523e-05
7.76979e-05
7.8184e-05
7.89182e-05
7.98063e-05
8.07837e-05
8.15962e-05
8.26545e-05
8.47933e-05
9.18239e-05
0.000105133
0.000207231
0.000194103
9.69961e-05
8.43292e-05
7.77426e-05
7.55787e-05
7.44934e-05
7.37855e-05
7.31935e-05
7.27506e-05
7.24475e-05
7.2179e-05
7.1985e-05
7.18585e-05
7.17913e-05
7.17777e-05
7.18153e-05
7.19039e-05
7.20452e-05
7.22429e-05
7.24957e-05
7.27395e-05
7.30497e-05
7.34904e-05
7.41549e-05
7.47928e-05
7.5673e-05
7.75372e-05
8.38705e-05
9.59418e-05
0.000191671
7.32075e-05
3.41977e-05
5.23797e-05
5.56387e-05
5.85848e-05
6.06389e-05
6.16104e-05
6.14748e-05
6.06203e-05
5.94644e-05
5.82898e-05
5.72502e-05
5.64294e-05
5.58737e-05
5.55959e-05
5.55954e-05
5.58703e-05
5.64185e-05
5.72299e-05
5.82633e-05
5.94151e-05
6.05095e-05
6.12784e-05
6.12928e-05
6.01501e-05
5.79459e-05
5.49262e-05
5.18553e-05
3.25081e-05
7.22486e-05
8.30212e-05
5.9304e-05
5.09551e-05
4.38432e-05
3.97149e-05
3.7868e-05
3.70067e-05
3.63236e-05
3.54849e-05
3.45417e-05
3.37244e-05
3.31088e-05
3.26553e-05
3.23577e-05
3.22118e-05
3.22123e-05
3.23577e-05
3.2654e-05
3.31069e-05
3.3711e-05
3.44389e-05
3.52752e-05
3.61468e-05
3.68973e-05
3.7834e-05
3.96967e-05
4.39453e-05
5.09515e-05
5.854e-05
8.26895e-05
7.91254e-05
6.2428e-05
4.9361e-05
3.5731e-05
2.90472e-05
2.64941e-05
2.58502e-05
2.57665e-05
2.57387e-05
2.56418e-05
2.54502e-05
2.5229e-05
2.50285e-05
2.48747e-05
2.47799e-05
2.47466e-05
2.47756e-05
2.48681e-05
2.50234e-05
2.523e-05
2.54581e-05
2.56659e-05
2.57401e-05
2.58545e-05
2.65329e-05
2.90706e-05
3.59168e-05
4.92211e-05
6.15167e-05
7.89523e-05
7.69386e-05
5.99142e-05
4.45102e-05
3.09019e-05
2.46667e-05
2.21676e-05
2.17031e-05
2.1949e-05
2.23193e-05
2.26417e-05
2.28583e-05
2.29666e-05
2.3001e-05
2.29945e-05
2.29702e-05
2.29369e-05
2.28964e-05
2.28464e-05
2.27797e-05
2.26778e-05
2.25175e-05
2.22989e-05
2.20488e-05
2.19363e-05
2.24852e-05
2.4769e-05
3.08601e-05
4.42373e-05
5.92602e-05
7.70945e-05
7.57731e-05
5.76062e-05
3.94058e-05
2.78767e-05
2.28404e-05
2.11055e-05
2.09462e-05
2.13898e-05
2.19462e-05
2.24219e-05
2.27706e-05
2.29956e-05
2.3124e-05
2.31846e-05
2.31983e-05
2.31758e-05
2.31202e-05
2.30277e-05
2.28881e-05
2.26824e-05
2.23872e-05
2.19942e-05
2.15322e-05
2.11614e-05
2.13588e-05
2.30089e-05
2.78171e-05
3.91972e-05
5.73171e-05
7.60311e-05
7.51394e-05
5.49486e-05
3.5344e-05
2.60343e-05
2.22328e-05
2.12077e-05
2.13702e-05
2.18739e-05
2.24173e-05
2.2885e-05
2.32432e-05
2.34932e-05
2.36522e-05
2.37398e-05
2.37723e-05
2.37592e-05
2.37033e-05
2.36007e-05
2.34413e-05
2.32098e-05
2.28899e-05
2.24745e-05
2.19833e-05
2.15116e-05
2.13407e-05
2.22788e-05
2.59579e-05
3.5144e-05
5.48951e-05
7.53957e-05
7.47224e-05
5.23912e-05
3.23976e-05
2.48983e-05
2.21044e-05
2.16981e-05
2.20286e-05
2.25362e-05
2.30356e-05
2.34603e-05
2.37899e-05
2.40263e-05
2.41822e-05
2.42727e-05
2.43105e-05
2.43033e-05
2.42529e-05
2.41556e-05
2.4002e-05
2.37789e-05
2.34724e-05
2.30746e-05
2.25951e-05
2.20866e-05
2.1719e-05
2.20394e-05
2.47302e-05
3.2334e-05
5.24068e-05
7.50198e-05
7.43407e-05
5.00526e-05
3.05803e-05
2.40351e-05
2.21566e-05
2.21664e-05
2.26121e-05
2.31242e-05
2.35878e-05
2.3969e-05
2.42613e-05
2.44712e-05
2.46109e-05
2.46935e-05
2.47297e-05
2.47258e-05
2.46828e-05
2.45969e-05
2.44591e-05
2.42565e-05
2.39752e-05
2.36037e-05
2.31408e-05
2.26108e-05
2.2117e-05
2.20297e-05
2.38584e-05
3.05764e-05
5.00653e-05
7.45857e-05
7.40435e-05
4.79919e-05
2.9384e-05
2.34988e-05
2.2272e-05
2.25355e-05
2.30673e-05
2.35855e-05
2.40231e-05
2.43677e-05
2.46245e-05
2.48056e-05
2.4925e-05
2.49954e-05
2.50268e-05
2.50246e-05
2.49894e-05
2.4917e-05
2.47982e-05
2.46198e-05
2.43661e-05
2.40215e-05
2.35755e-05
2.30347e-05
2.24619e-05
2.21454e-05
2.33563e-05
2.93887e-05
4.80016e-05
7.42298e-05
7.38129e-05
4.63093e-05
2.85748e-05
2.31831e-05
2.23936e-05
2.28147e-05
2.34018e-05
2.39249e-05
2.43428e-05
2.46579e-05
2.48843e-05
2.50391e-05
2.51386e-05
2.51963e-05
2.5222e-05
2.52207e-05
2.51927e-05
2.51334e-05
2.50334e-05
2.48785e-05
2.46512e-05
2.43319e-05
2.39034e-05
2.33606e-05
2.2744e-05
2.22906e-05
2.30813e-05
2.85784e-05
4.63246e-05
7.39483e-05
7.3635e-05
4.50298e-05
2.80366e-05
2.30056e-05
2.25007e-05
2.30198e-05
2.36399e-05
2.41637e-05
2.45656e-05
2.48571e-05
2.50588e-05
2.51917e-05
2.52742e-05
2.53208e-05
2.53411e-05
2.53403e-05
2.53184e-05
2.52706e-05
2.51871e-05
2.50529e-05
2.48487e-05
2.45522e-05
2.41412e-05
2.36028e-05
2.29636e-05
2.24262e-05
2.29378e-05
2.80361e-05
4.50515e-05
7.37306e-05
7.35046e-05
4.41323e-05
2.76814e-05
2.29068e-05
2.25854e-05
2.31643e-05
2.38022e-05
2.43237e-05
2.47124e-05
2.49858e-05
2.51688e-05
2.5285e-05
2.53544e-05
2.53922e-05
2.54083e-05
2.54078e-05
2.53906e-05
2.53518e-05
2.52813e-05
2.51637e-05
2.49783e-05
2.47006e-05
2.43052e-05
2.37741e-05
2.31247e-05
2.25361e-05
2.28636e-05
2.76749e-05
4.41558e-05
7.35707e-05
7.34221e-05
4.35851e-05
2.74709e-05
2.28566e-05
2.26445e-05
2.32571e-05
2.39036e-05
2.44216e-05
2.48006e-05
2.50616e-05
2.52318e-05
2.53368e-05
2.53974e-05
2.54293e-05
2.54426e-05
2.54422e-05
2.54283e-05
2.53957e-05
2.53342e-05
2.52281e-05
2.50559e-05
2.47919e-05
2.44085e-05
2.38847e-05
2.32318e-05
2.26141e-05
2.28304e-05
2.74655e-05
4.3602e-05
7.34662e-05
7.3387e-05
4.33766e-05
2.73842e-05
2.28398e-05
2.26764e-05
2.33033e-05
2.39527e-05
2.44682e-05
2.48419e-05
2.50965e-05
2.52603e-05
2.53595e-05
2.54158e-05
2.54447e-05
2.54566e-05
2.54564e-05
2.54441e-05
2.54148e-05
2.5358e-05
2.52579e-05
2.50928e-05
2.48363e-05
2.446e-05
2.39411e-05
2.32881e-05
2.26584e-05
2.28242e-05
2.73791e-05
4.33767e-05
7.34156e-05
7.33846e-05
4.33783e-05
2.73863e-05
2.28431e-05
2.2679e-05
2.3305e-05
2.39537e-05
2.44687e-05
2.48421e-05
2.50965e-05
2.52602e-05
2.53595e-05
2.54157e-05
2.54447e-05
2.54567e-05
2.54566e-05
2.54445e-05
2.54152e-05
2.53587e-05
2.52589e-05
2.50944e-05
2.48389e-05
2.44639e-05
2.39469e-05
2.32961e-05
2.26683e-05
2.28337e-05
2.73832e-05
4.33779e-05
7.34044e-05
7.34146e-05
4.35958e-05
2.74782e-05
2.28673e-05
2.26529e-05
2.32625e-05
2.39067e-05
2.44231e-05
2.48011e-05
2.50616e-05
2.52316e-05
2.53366e-05
2.53974e-05
2.54294e-05
2.5443e-05
2.5443e-05
2.54294e-05
2.53972e-05
2.53363e-05
2.52311e-05
2.50606e-05
2.47995e-05
2.44205e-05
2.39027e-05
2.32569e-05
2.26459e-05
2.28613e-05
2.7478e-05
4.36022e-05
7.34305e-05
7.34913e-05
4.41549e-05
2.76947e-05
2.29269e-05
2.26013e-05
2.31744e-05
2.38079e-05
2.43263e-05
2.47132e-05
2.49857e-05
2.51684e-05
2.52846e-05
2.53544e-05
2.53926e-05
2.54093e-05
2.54093e-05
2.53926e-05
2.53544e-05
2.52846e-05
2.51682e-05
2.49854e-05
2.47124e-05
2.43248e-05
2.38053e-05
2.31703e-05
2.25956e-05
2.29223e-05
2.7697e-05
4.41613e-05
7.35057e-05
7.36138e-05
4.50679e-05
2.80526e-05
2.30382e-05
2.25268e-05
2.3036e-05
2.36483e-05
2.41672e-05
2.45663e-05
2.48566e-05
2.5058e-05
2.51913e-05
2.52745e-05
2.53218e-05
2.5343e-05
2.5343e-05
2.53218e-05
2.52745e-05
2.51913e-05
2.50581e-05
2.48566e-05
2.45661e-05
2.41664e-05
2.36465e-05
2.30326e-05
2.25215e-05
2.30344e-05
2.80603e-05
4.50718e-05
7.36286e-05
7.37803e-05
4.63647e-05
2.86002e-05
2.32363e-05
2.24339e-05
2.28379e-05
2.34125e-05
2.39283e-05
2.43426e-05
2.46565e-05
2.48831e-05
2.50388e-05
2.51395e-05
2.51987e-05
2.52258e-05
2.52257e-05
2.51985e-05
2.51394e-05
2.50387e-05
2.48831e-05
2.46566e-05
2.43428e-05
2.39282e-05
2.34116e-05
2.28352e-05
2.24292e-05
2.32336e-05
2.86157e-05
4.63673e-05
7.37971e-05
7.39943e-05
4.80637e-05
2.94307e-05
2.35812e-05
2.23282e-05
2.25638e-05
2.30774e-05
2.35863e-05
2.40204e-05
2.43648e-05
2.4623e-05
2.48061e-05
2.49277e-05
2.50006e-05
2.50343e-05
2.50341e-05
2.5e-05
2.49271e-05
2.48055e-05
2.46227e-05
2.43649e-05
2.4021e-05
2.35871e-05
2.30777e-05
2.25629e-05
2.23254e-05
2.35808e-05
2.94556e-05
4.80685e-05
7.40149e-05
7.42668e-05
5.0129e-05
3.06628e-05
2.41482e-05
2.22233e-05
2.21917e-05
2.26146e-05
2.3118e-05
2.35806e-05
2.39643e-05
2.42604e-05
2.44742e-05
2.46177e-05
2.47041e-05
2.47441e-05
2.47436e-05
2.47027e-05
2.46158e-05