/*--------------------------------*- C++ -*----------------------------------*\
| =========                 |                                                 |
| \\      /  F ield         | OpenFOAM: The Open Source CFD Toolbox           |
|  \\    /   O peration     | Version:  2312                                  |
|   \\  /    A nd           | Website:  www.openfoam.com                      |
|    \\/     M anipulation  |                                                 |
\*---------------------------------------------------------------------------*/
FoamFile
{
    version     2.0;
    format      ascii;
    arch        "LSB;label=32;scalar=64";
    class       volScalarField;
    location    "150";
    object      nut;
}
// * * * * * * * * * * * * * * * * * * * * * * * * * * * * * * * * * * * * * //

dimensions      [0 2 -1 0 0 0 0];

internalField   nonuniform List<scalar> 
27000
(
3.95846e-06
6.71745e-06
9.3719e-06
1.17419e-05
1.40437e-05
1.6193e-05
1.81453e-05
1.9795e-05
2.12148e-05
2.24279e-05
2.34262e-05
2.42213e-05
2.48168e-05
2.52147e-05
2.54161e-05
2.54216e-05
2.52312e-05
2.48443e-05
2.42593e-05
2.3472e-05
2.24705e-05
2.126e-05
1.98411e-05
1.81887e-05
1.62292e-05
1.40674e-05
1.17487e-05
9.36187e-06
6.69962e-06
3.94754e-06
5.75786e-06
1.27714e-06
5.16113e-06
9.08995e-06
1.31721e-05
1.70286e-05
2.06669e-05
2.40575e-05
2.71442e-05
2.99024e-05
3.23099e-05
3.43136e-05
3.58593e-05
3.69083e-05
3.74362e-05
3.74302e-05
3.68901e-05
3.58294e-05
3.42759e-05
3.22761e-05
2.9887e-05
2.71293e-05
2.40365e-05
2.06374e-05
1.6992e-05
1.31387e-05
9.08116e-06
5.15809e-06
1.27086e-06
5.74581e-06
9.23038e-06
7.1667e-06
1.45536e-05
2.63057e-05
3.70497e-05
4.62704e-05
5.46669e-05
6.26046e-05
6.99226e-05
7.64369e-05
8.20413e-05
8.66454e-05
9.01625e-05
9.25334e-05
9.3727e-05
9.37248e-05
9.25239e-05
9.01484e-05
8.66493e-05
8.21015e-05
7.65722e-05
7.01056e-05
6.27934e-05
5.47832e-05
4.6233e-05
3.68863e-05
2.62432e-05
1.46138e-05
7.10276e-06
9.22768e-06
1.21565e-05
1.08497e-05
2.61053e-05
5.30484e-05
7.88728e-05
9.67291e-05
0.000109868
0.0001207
0.000129977
0.000137796
0.000144255
0.000149409
0.000153262
0.000155826
0.000157115
0.000157137
0.000155894
0.000153391
0.000149633
0.000144603
0.000138243
0.000130462
0.000121059
0.000109844
9.61716e-05
7.80561e-05
5.2729e-05
2.6171e-05
1.08109e-05
1.21678e-05
1.49166e-05
1.44684e-05
3.68613e-05
7.64619e-05
0.000113888
0.000139639
0.000156179
0.000167728
0.000176604
0.000183175
0.000188201
0.00019215
0.000195053
0.000196961
0.000197922
0.000197956
0.000197061
0.000195226
0.00019241
0.000188516
0.000183386
0.000176816
0.000167766
0.00015568
0.000138674
0.000112966
7.62535e-05
3.6955e-05
1.44339e-05
1.49414e-05
1.74741e-05
1.83863e-05
4.75886e-05
9.52197e-05
0.000138023
0.000167417
0.000185551
0.000196808
0.000204261
0.000209374
0.000212978
0.000215581
0.000217416
0.000218595
0.000219184
0.00021921
0.000218672
0.000217545
0.000215758
0.000213168
0.000209509
0.000204287
0.000196588
0.000185032
0.00016694
0.0001377
9.5386e-05
4.77624e-05
1.83603e-05
1.75067e-05
1.98047e-05
2.25222e-05
5.84307e-05
0.000111345
0.000155712
0.000185142
0.000202883
0.000213212
0.000219331
0.000223083
0.000225465
0.000227024
0.000228046
0.000228673
0.000228979
0.000228992
0.000228713
0.000228111
0.000227108
0.000225545
0.000223118
0.00021927
0.000213009
0.00020259
0.00018495
0.000155791
0.000111684
5.85502e-05
2.24931e-05
1.98402e-05
2.18857e-05
2.6725e-05
6.90128e-05
0.000125438
0.00016973
0.000197292
0.000213343
0.000222243
0.000227088
0.000229735
0.000231205
0.000232042
0.000232526
0.000232797
0.000232921
0.000232924
0.000232808
0.000232545
0.000232066
0.000231223
0.000229727
0.000227034
0.000222142
0.000213252
0.000197312
0.00016988
0.000125734
6.90667e-05
2.66899e-05
2.19279e-05
2.37001e-05
3.08593e-05
7.89056e-05
0.000137565
0.000180896
0.000206008
0.000219955
0.00022728
0.000230958
0.000232734
0.000233558
0.000233926
0.000234083
0.000234146
0.000234167
0.000234166
0.000234143
0.00023408
0.000233923
0.000233552
0.000232719
0.000230932
0.000227254
0.000219962
0.000206073
0.00018094
0.000137757
7.89162e-05
3.08256e-05
2.37371e-05
2.52568e-05
3.47603e-05
8.78637e-05
0.000147719
0.000188775
0.000212072
0.0002242
0.000230137
0.000232846
0.000233964
0.000234349
0.000234427
0.0002344
0.000234354
0.000234324
0.000234321
0.000234346
0.000234389
0.000234415
0.000234336
0.000233951
0.000232837
0.000230146
0.000224248
0.000212179
0.000188934
0.000147865
8.78742e-05
3.4736e-05
2.52861e-05
2.65552e-05
3.82737e-05
9.56971e-05
0.000156228
0.000195346
0.000216539
0.000227021
0.000231801
0.000233752
0.000234396
0.000234494
0.000234404
0.000234282
0.000234185
0.000234133
0.00023413
0.000234177
0.00023427
0.00023439
0.00023448
0.000234383
0.000233748
0.000231816
0.000227071
0.000216638
0.000195477
0.000156317
9.57047e-05
3.82572e-05
2.65769e-05
2.75939e-05
4.12616e-05
0.00010219
0.000163028
0.000200474
0.000219842
0.000228939
0.000232799
0.000234184
0.000234499
0.000234417
0.000234236
0.000234072
0.000233958
0.000233901
0.000233899
0.000233951
0.000234061
0.000234223
0.000234403
0.000234486
0.000234176
0.000232806
0.000228971
0.000219903
0.000200546
0.000163059
0.000102183
4.12496e-05
2.76093e-05
2.83728e-05
4.36071e-05
0.000107174
0.000168131
0.000204211
0.000222168
0.000230217
0.000233402
0.000234388
0.000234488
0.0002343
0.000234074
0.000233895
0.00023378
0.000233725
0.000233723
0.000233775
0.000233886
0.000234063
0.000234287
0.000234474
0.000234377
0.000233398
0.000230227
0.000222191
0.000204228
0.000168092
0.000107152
4.35978e-05
2.83834e-05
2.88918e-05
4.52208e-05
0.000110543
0.000171531
0.000206643
0.000223643
0.000230998
0.000233745
0.000234482
0.000234454
0.000234208
0.000233962
0.000233781
0.00023367
0.000233618
0.000233617
0.000233666
0.000233774
0.000233953
0.000234197
0.000234441
0.000234469
0.000233736
0.000230995
0.000223645
0.000206636
0.000171487
0.000110519
4.52135e-05
2.88991e-05
2.91511e-05
4.60421e-05
0.000112237
0.000173224
0.000207837
0.000224357
0.000231368
0.000233901
0.000234519
0.000234431
0.00023416
0.000233908
0.000233727
0.00023362
0.00023357
0.000233569
0.000233617
0.000233723
0.000233901
0.000234151
0.00023442
0.000234507
0.000233891
0.000231361
0.000224351
0.000207824
0.000173188
0.000112217
4.6036e-05
2.91563e-05
2.91505e-05
4.60413e-05
0.000112235
0.000173224
0.000207836
0.000224356
0.000231368
0.000233902
0.00023452
0.000234431
0.000234161
0.000233908
0.000233728
0.00023362
0.000233571
0.00023357
0.000233618
0.000233724
0.000233903
0.000234154
0.000234423
0.00023451
0.000233893
0.000231361
0.00022435
0.000207824
0.000173196
0.000112216
4.60355e-05
2.91547e-05
2.88902e-05
4.52182e-05
0.000110534
0.000171531
0.000206637
0.000223639
0.000230997
0.000233746
0.000234484
0.000234455
0.000234209
0.000233963
0.000233782
0.000233672
0.00023362
0.00023362
0.00023367
0.000233779
0.000233959
0.000234203
0.000234448
0.000234476
0.000233739
0.000230992
0.000223636
0.00020663
0.000171508
0.000110517
4.52121e-05
2.8894e-05
2.83699e-05
4.36026e-05
0.000107157
0.000168125
0.000204197
0.000222158
0.000230213
0.000233402
0.00023439
0.00023449
0.000234302
0.000234076
0.000233897
0.000233783
0.000233729
0.000233728
0.000233781
0.000233894
0.000234072
0.000234297
0.000234484
0.000234383
0.000233397
0.000230211
0.00022216
0.000204197
0.000168106
0.000107141
4.35957e-05
2.83742e-05
2.75896e-05
4.12546e-05
0.000102161
0.000162996
0.000200445
0.000219825
0.000228932
0.000232798
0.000234185
0.000234501
0.000234419
0.000234239
0.000234075
0.000233963
0.000233908
0.000233907
0.000233961
0.000234072
0.000234234
0.000234414
0.000234494
0.000234179
0.000232794
0.000228933
0.000219833
0.000200457
0.000162995
0.000102147
4.12461e-05
2.75949e-05
2.65492e-05
3.82645e-05
9.56587e-05
0.000156184
0.00019531
0.000216518
0.000227013
0.0002318
0.000233753
0.000234397
0.000234495
0.000234407
0.000234286
0.000234193
0.000234143
0.000234142
0.00023419
0.000234282
0.000234402
0.000234489
0.000234389
0.000233744
0.000231793
0.000227013
0.000216531
0.000195331
0.000156193
9.56435e-05
3.82531e-05
2.65561e-05
2.52491e-05
3.47503e-05
8.78323e-05
0.000147673
0.000188755
0.000212059
0.000224197
0.000230139
0.000232848
0.000233965
0.00023435
0.000234431
0.000234407
0.000234364
0.000234337
0.000234336
0.000234361
0.000234402
0.000234425
0.000234342
0.000233953
0.000232831
0.00023012
0.000224186
0.000212066
0.000188768
0.000147691
8.78071e-05
3.4734e-05
2.5258e-05
2.36907e-05
3.08476e-05
7.88708e-05
0.000137511
0.000180889
0.00020601
0.000219969
0.000227294
0.000230966
0.000232736
0.000233559
0.00023393
0.000234091
0.000234158
0.000234182
0.000234181
0.000234156
0.000234088
0.000233925
0.00023355
0.000232716
0.000230931
0.000227246
0.000219924
0.000205995
0.0001809
0.000137547
7.88444e-05
3.08267e-05
2.37019e-05
2.18755e-05
2.67111e-05
6.89694e-05
0.00012537
0.000169722
0.000197328
0.000213397
0.000222286
0.00022711
0.000229742
0.000231207
0.000232047
0.000232535
0.00023281
0.000232934
0.000232935
0.000232812
0.000232538
0.000232048
0.000231201
0.000229716
0.00022705
0.000222185
0.000213278
0.00019725
0.000169728
0.000125429
6.89521e-05
2.6688e-05
2.18883e-05
1.97968e-05
2.25075e-05
5.83839e-05
0.00011129
0.000155757
0.000185273
0.000203021
0.000213303
0.000219371
0.000223095
0.000225469
0.000227031
0.000228057
0.000228687
0.000228988
0.000228991
0.000228696
0.000228074
0.00022705
0.000225478
0.000223074
0.000219294
0.000213135
0.000202774
0.000185046
0.000155676
0.000111341
5.83783e-05
2.24852e-05
1.98079e-05
1.7467e-05
1.83772e-05
4.75458e-05
9.5243e-05
0.000138235
0.000167721
0.0001858
0.000196934
0.000204301
0.000209379
0.000212978
0.00021559
0.000217433
0.000218613
0.000219192
0.000219198
0.000218634
0.00021747
0.000215639
0.00021302
0.000209384
0.000204252
0.000196749
0.000185431
0.000167271
0.000137939
9.52133e-05
4.75642e-05
1.83549e-05
1.74775e-05
1.49115e-05
1.44672e-05
3.68674e-05
7.66461e-05
0.000114338
0.000140103
0.000156448
0.000167803
0.000176595
0.000183156
0.000188191
0.000192162
0.000195081
0.000196994
0.000197943
0.000197952
0.000197023
0.000195134
0.000192242
0.000188279
0.000183169
0.000176623
0.00016773
0.000156129
0.000139528
0.000113793
7.64603e-05
3.68637e-05
1.44443e-05
1.49195e-05
1.21544e-05
1.0856e-05
2.61439e-05
5.33151e-05
7.93028e-05
9.70607e-05
0.000109995
0.000120696
0.000129921
0.000137742
0.000144229
0.000149416
0.000153297
0.000155875
0.000157163
0.000157168
0.000155893
0.000153336
0.000149488
0.000144341
0.000137879
0.000130066
0.000120787
0.00010993
9.67516e-05
7.88719e-05
5.30741e-05
2.61317e-05
1.08329e-05
1.21578e-05
9.23076e-06
7.18311e-06
1.45746e-05
2.64107e-05
3.71759e-05
4.63322e-05
5.46459e-05
6.2548e-05
6.98593e-05
7.6389e-05
8.20217e-05
8.66543e-05
9.0195e-05
9.25823e-05
9.37816e-05
9.37777e-05
9.2571e-05
9.018e-05
8.66435e-05
8.20263e-05
7.64132e-05
6.98932e-05
6.25782e-05
5.46545e-05
4.62871e-05
3.7082e-05
2.63533e-05
1.4588e-05
7.15488e-06
9.22944e-06
5.7604e-06
1.27531e-06
5.15839e-06
9.09232e-06
1.31756e-05
1.70237e-05
2.06508e-05
2.40344e-05
2.71205e-05
2.98846e-05
3.23019e-05
3.4314e-05
3.58666e-05
3.69211e-05
3.74533e-05
3.74512e-05
3.69144e-05
3.58553e-05
3.42991e-05
3.22867e-05
2.98739e-05
2.71091e-05
2.40189e-05
2.06298e-05
1.7e-05
1.31558e-05
9.08498e-06
5.15601e-06
1.2721e-06
5.75577e-06
3.96187e-06
6.72383e-06
9.37738e-06
1.17444e-05
1.40429e-05
1.61897e-05
1.81404e-05
1.97893e-05
2.12084e-05
2.2419e-05
2.34169e-05
2.42115e-05
2.48062e-05
2.52026e-05
2.54015e-05
2.54035e-05
2.52085e-05
2.4816e-05
2.42251e-05
2.34335e-05
2.24368e-05
2.12253e-05
1.98064e-05
1.81566e-05
1.62033e-05
1.4052e-05
1.17473e-05
9.37404e-06
6.71748e-06
3.95791e-06
3.53239e-06
6.04268e-06
8.66027e-06
1.10648e-05
1.34712e-05
1.57412e-05
1.78197e-05
1.9588e-05
2.11202e-05
2.24392e-05
2.35619e-05
2.44641e-05
2.51411e-05
2.5591e-05
2.58126e-05
2.58054e-05
2.55692e-05
2.51046e-05
2.4413e-05
2.34998e-05
2.23872e-05
2.10641e-05
1.9528e-05
1.7749e-05
1.56778e-05
1.34313e-05
1.10572e-05
8.685e-06
6.08218e-06
3.55815e-06
5.08237e-06
1.5904e-06
7.35217e-06
1.09416e-05
1.45487e-05
1.76258e-05
2.03132e-05
2.27334e-05
2.48028e-05
2.65555e-05
2.79948e-05
2.91359e-05
2.99926e-05
3.05677e-05
3.08584e-05
3.08633e-05
3.05829e-05
3.00183e-05
2.91686e-05
2.80237e-05
2.65657e-05
2.48113e-05
2.27532e-05
2.03903e-05
1.77735e-05
1.46945e-05
1.10709e-05
7.44793e-06
1.65168e-06
5.11877e-06
8.65503e-06
9.91555e-06
1.31416e-05
1.65901e-05
2.16703e-05
2.72794e-05
3.25647e-05
3.70647e-05
4.08789e-05
4.42475e-05
4.71756e-05
4.9613e-05
5.15106e-05
5.28206e-05
5.34865e-05
5.3512e-05
5.29444e-05
5.1789e-05
5.00372e-05
4.76698e-05
4.46862e-05
4.11304e-05
3.70574e-05
3.24585e-05
2.72233e-05
2.16733e-05
1.64872e-05
1.30349e-05
1.01635e-05
8.67525e-06
1.15655e-05
1.32291e-05
1.78601e-05
2.52714e-05
3.51825e-05
4.62734e-05
5.6256e-05
6.45778e-05
7.16964e-05
7.78455e-05
8.31802e-05
8.76527e-05
9.11382e-05
9.35588e-05
9.48548e-05
9.5021e-05
9.40725e-05
9.19958e-05
8.87545e-05
8.43231e-05
7.87133e-05
7.20074e-05
6.44443e-05
5.5835e-05
4.60524e-05
3.51893e-05
2.50763e-05
1.76463e-05
1.34531e-05
1.1552e-05
1.44485e-05
1.57793e-05
2.29234e-05
3.56869e-05
5.39789e-05
7.40383e-05
9.05608e-05
0.000103001
0.000112901
0.00012126
0.000128179
0.000133626
0.000137735
0.000140515
0.000141929
0.000142033
0.000140877
0.000138385
0.000134405
0.000128894
0.000121785
0.000112894
0.000102466
8.9594e-05
7.3243e-05
5.36968e-05
3.54019e-05
2.27336e-05
1.59968e-05
1.44075e-05
1.71751e-05
1.81064e-05
2.89164e-05
4.74531e-05
7.40458e-05
0.000100757
0.000122659
0.000138472
0.000149923
0.000158564
0.000165202
0.000170227
0.000173867
0.000176249
0.000177435
0.000177483
0.000176405
0.000174128
0.00017051
0.000165406
0.000158602
0.000149737
0.00013814
0.000122233
9.98696e-05
7.31127e-05
4.69441e-05
2.86695e-05
1.82454e-05
1.71285e-05
1.96919e-05
2.06213e-05
3.42471e-05
5.8673e-05
9.15718e-05
0.000123036
0.0001472
0.000164364
0.000176265
0.000184623
0.000190594
0.00019486
0.000197815
0.000199687
0.000200602
0.000200626
0.00019976
0.000197929
0.000194977
0.000190673
0.000184638
0.000176218
0.000164272
0.000146998
0.000122574
9.10256e-05
5.85471e-05
3.42952e-05
2.06574e-05
1.96463e-05
2.19992e-05
2.30869e-05
3.90917e-05
6.89036e-05
0.000106261
0.000140051
0.000164963
0.000182218
0.000193808
0.000201541
0.000206726
0.000210206
0.000212494
0.000213889
0.000214557
0.000214574
0.000213939
0.000212569
0.000210289
0.000206799
0.000201595
0.000193839
0.000182207
0.000164858
0.000139854
0.000106318
6.93976e-05
3.94224e-05
2.31209e-05
2.1941e-05
2.40915e-05
2.53865e-05
4.38927e-05
7.85876e-05
0.000118886
0.000153235
0.000177817
0.000194394
0.000205198
0.000212108
0.00021649
0.000219253
0.000220964
0.000221959
0.000222423
0.000222437
0.000221999
0.000221024
0.000219324
0.000216562
0.000212173
0.000205247
0.000194409
0.000177792
0.000153274
0.00011937
7.93533e-05
4.42484e-05
2.54133e-05
2.40427e-05
2.59223e-05
2.74548e-05
4.84059e-05
8.72432e-05
0.000130058
0.00016372
0.000187255
0.000202737
0.000212532
0.000218555
0.000222182
0.000224328
0.00022557
0.00022625
0.000226555
0.000226566
0.000226281
0.000225617
0.000224384
0.000222241
0.000218612
0.000212576
0.000202758
0.000187257
0.000163778
0.000130343
8.79131e-05
4.85775e-05
2.74691e-05
2.58851e-05
2.7473e-05
2.92531e-05
5.22902e-05
9.44514e-05
0.000138388
0.000171637
0.000194107
0.000208452
0.000217236
0.000222426
0.000225393
0.000227035
0.000227914
0.000228359
0.000228546
0.000228554
0.000228381
0.000227948
0.000227077
0.000225438
0.00022247
0.000217273
0.000208473
0.000194118
0.000171689
0.000138606
9.49463e-05
5.23319e-05
2.92619e-05
2.74464e-05
2.87301e-05
3.0749e-05
5.54428e-05
0.000100222
0.000144718
0.000177461
0.000198983
0.000212326
0.000220232
0.000224718
0.00022715
0.000228404
0.000229015
0.000229292
0.000229398
0.000229403
0.000229307
0.000229038
0.000228433
0.000227182
0.000224751
0.000220262
0.000212348
0.000199002
0.000177513
0.000144885
0.000100564
5.54662e-05
3.0757e-05
2.87119e-05
2.96826e-05
3.19122e-05
5.79098e-05
0.000104628
0.000149378
0.000181607
0.000202337
0.000214881
0.000222099
0.000226046
0.000228081
0.000229056
0.000229482
0.000229647
0.000229699
0.000229702
0.000229656
0.000229497
0.000229075
0.000228103
0.00022607
0.000222122
0.0002149
0.000202357
0.000181647
0.000149483
0.000104819
5.79293e-05
3.19199e-05
2.96703e-05
3.03222e-05
3.27123e-05
5.96223e-05
0.00010763
0.00015248
0.000184296
0.000204454
0.000216439
0.000223187
0.000226772
0.000228546
0.000229344
0.000229655
0.000229751
0.000229772
0.000229773
0.000229756
0.000229663
0.000229355
0.00022856
0.000226787
0.000223202
0.000216452
0.000204467
0.00018432
0.000152539
0.000107741
5.96332e-05
3.27178e-05
3.0314e-05
3.06436e-05
3.31251e-05
6.05053e-05
0.000109145
0.000154032
0.000185624
0.000205482
0.000217179
0.000223689
0.000227093
0.000228738
0.000229449
0.000229705
0.00022977
0.000229775
0.000229776
0.000229772
0.000229709
0.000229454
0.000228745
0.000227101
0.000223697
0.000217185
0.000205487
0.000185634
0.000154062
0.000109209
6.05094e-05
3.31285e-05
3.06379e-05
3.06444e-05
3.31261e-05
6.05081e-05
0.000109139
0.00015403
0.000185624
0.000205482
0.000217179
0.000223688
0.000227092
0.000228738
0.000229449
0.000229705
0.00022977
0.000229775
0.000229775
0.00022977
0.000229707
0.000229451
0.00022874
0.000227095
0.000223691
0.00021718
0.000205482
0.000185627
0.000154046
0.000109178
6.05105e-05
3.31294e-05
3.064e-05
3.03246e-05
3.27155e-05
5.96315e-05
0.000107609
0.000152474
0.000184298
0.000204456
0.000216438
0.000223186
0.000226771
0.000228546
0.000229344
0.000229655
0.000229751
0.00022977
0.00022977
0.000229751
0.000229655
0.000229344
0.000228546
0.000226772
0.000223187
0.00021644
0.000204456
0.000184301
0.000152488
0.000107643
5.96361e-05
3.27196e-05
3.03207e-05
2.96869e-05
3.19182e-05
5.79276e-05
0.000104588
0.000149367
0.00018161
0.000202341
0.000214881
0.000222098
0.000226045
0.000228081
0.000229057
0.000229483
0.000229646
0.000229696
0.000229696
0.000229646
0.000229483
0.000229057
0.000228081
0.000226046
0.000222101
0.000214886
0.000202348
0.000181622
0.000149391
0.000104633
5.79363e-05
3.19229e-05
2.96828e-05
2.87367e-05
3.07585e-05
5.54733e-05
0.00010014
0.000144693
0.000177466
0.00019899
0.000212329
0.000220232
0.000224718
0.000227152
0.000228407
0.000229017
0.000229291
0.000229393
0.000229394
0.000229293
0.000229019
0.000228408
0.000227154
0.000224722
0.000220238
0.000212339
0.000199006
0.000177491
0.000144742
0.000100224
5.54885e-05
3.07634e-05
2.87317e-05
2.74826e-05
2.92653e-05
5.23162e-05
9.43103e-05
0.000138343
0.00017164
0.000194116
0.000208456
0.000217238
0.000222429
0.000225397
0.00022704
0.000227917
0.000228358
0.00022854
0.000228542
0.000228362
0.000227922
0.000227045
0.000225401
0.000222434
0.000217247
0.000208471
0.000194139
0.000171678
0.000138418
9.44433e-05
5.23502e-05
2.92714e-05
2.74761e-05
2.59355e-05
2.74645e-05
4.83198e-05
8.70139e-05
0.000129965
0.000163708
0.000187259
0.000202739
0.000212534
0.00021856
0.000222189
0.000224336
0.000225575
0.00022625
0.000226548
0.000226552
0.000226259
0.000225586
0.000224346
0.000222197
0.000218567
0.000212543
0.000202756
0.000187284
0.000163751
0.000130073
8.7209e-05
4.84335e-05
2.74749e-05
2.59269e-05
2.41085e-05
2.53932e-05
4.37722e-05
7.83377e-05
0.000118731
0.000153207
0.000177808
0.000194385
0.000205195
0.000212114
0.000216502
0.000219265
0.000220972
0.000221961
0.000222417
0.000222423
0.000221976
0.000220992
0.000219284
0.000216515
0.000212123
0.000205207
0.000194405
0.000177832
0.000153236
0.00011883
7.85419e-05
4.3927e-05
2.54076e-05
2.40975e-05
2.20191e-05
2.30925e-05
3.89812e-05
6.8786e-05
0.000106206
0.000140048
0.000164935
0.000182187
0.000193796
0.000201548
0.000206741
0.000210219
0.0002125
0.000213888
0.00021455
0.00021456
0.000213913
0.000212534
0.000210252
0.000206765
0.000201563
0.000193813
0.000182217
0.000164965
0.000140042
0.000106205
6.89018e-05
3.91426e-05
2.31086e-05
2.20061e-05
1.97085e-05
2.06274e-05
3.41902e-05
5.86958e-05
9.1643e-05
0.000123037
0.000147127
0.000164309
0.000176254
0.000184636
0.000190606
0.000194858
0.000197797
0.00019966
0.000200572
0.000200588
0.000199703
0.000197856
0.000194916
0.00019065
0.000184661
0.00017627
0.000164351
0.000147184
0.000123013
9.15184e-05
5.86733e-05
3.43066e-05
2.06443e-05
1.96992e-05
1.71915e-05
1.81101e-05
2.90001e-05
4.75629e-05
7.409e-05
0.000100781
0.000122547
0.000138452
0.000149952
0.000158582
0.00016518
0.000170159
0.000173763
0.000176127
0.000177313
0.000177342
0.000176208
0.000173878
0.000170278
0.000165279
0.000158643
0.000149953
0.000138459
0.00012262
0.000100703
7.39652e-05
4.74097e-05
2.89469e-05
1.81285e-05
1.71818e-05
1.44634e-05
1.5729e-05
2.29647e-05
3.56181e-05
5.36408e-05
7.3681e-05
9.06218e-05
0.000103139
0.000112973
0.000121219
0.000128025
0.000133387
0.000137439
0.000140181
0.000141589
0.000141644
0.000140338
0.000137673
0.000133656
0.000128277
0.000121445
0.000113034
0.000103076
9.05601e-05
7.39202e-05
5.38117e-05
3.55821e-05
2.29166e-05
1.57933e-05
1.44539e-05
1.15709e-05
1.31574e-05
1.78787e-05
2.51289e-05
3.48781e-05
4.60185e-05
5.63372e-05
6.46906e-05
7.17399e-05
7.77888e-05
8.29685e-05
8.73723e-05
9.08144e-05
9.31899e-05
9.44289e-05
9.44956e-05
9.3388e-05
9.11289e-05
8.77669e-05
8.33746e-05
7.80825e-05
7.19082e-05
6.47114e-05
5.62621e-05
4.61135e-05
3.49754e-05
2.51753e-05
1.78117e-05
1.32225e-05
1.15676e-05
8.64882e-06
9.81267e-06
1.315e-05
1.6621e-05
2.16011e-05
2.72528e-05
3.26346e-05
3.70873e-05
4.0856e-05
4.41875e-05
4.70879e-05
4.95165e-05
5.14101e-05
5.27154e-05
5.33914e-05
5.34202e-05
5.28054e-05
5.15627e-05
4.97254e-05
4.7335e-05
4.44377e-05
4.10771e-05
3.72337e-05
3.26504e-05
2.72582e-05
2.16132e-05
1.65495e-05
1.31034e-05
9.88279e-06
8.65379e-06
5.07123e-06
1.57746e-06
7.32774e-06
1.09204e-05
1.45223e-05
1.76139e-05
2.03345e-05
2.27576e-05
2.4824e-05
2.65698e-05
2.79998e-05
2.91337e-05
2.99837e-05
3.05524e-05
3.08385e-05
3.08404e-05
3.05585e-05
2.99938e-05
2.91472e-05
2.80135e-05
2.6578e-05
2.48322e-05
2.27684e-05
2.03502e-05
1.7655e-05
1.45642e-05
1.0951e-05
7.35138e-06
1.59622e-06
5.0815e-06
3.52275e-06
6.02665e-06
8.64889e-06
1.10632e-05
1.34789e-05
1.57558e-05
1.78352e-05
1.96042e-05
2.11367e-05
2.24601e-05
2.35821e-05
2.44838e-05
2.51611e-05
2.56125e-05
2.58373e-05
2.58352e-05
2.5606e-05
2.51501e-05
2.44686e-05
2.35633e-05
2.24406e-05
2.11208e-05
1.95879e-05
1.78188e-05
1.57373e-05
1.34656e-05
1.10584e-05
8.65343e-06
6.03658e-06
3.52974e-06
3.41647e-06
5.79961e-06
8.29448e-06
1.05869e-05
1.28723e-05
1.50319e-05
1.70276e-05
1.8759e-05
2.02799e-05
2.1603e-05
2.2709e-05
2.36019e-05
2.42773e-05
2.47317e-05
2.49625e-05
2.49683e-05
2.4749e-05
2.43053e-05
2.36392e-05
2.27524e-05
2.1639e-05
2.03131e-05
1.87872e-05
1.70593e-05
1.50542e-05
1.28754e-05
1.05712e-05
8.27228e-06
5.77196e-06
3.3981e-06
4.96176e-06
2.81011e-06
1.08054e-05
1.62558e-05
2.1405e-05
2.58904e-05
2.96617e-05
3.25863e-05
3.4794e-05
3.64512e-05
3.77105e-05
3.86543e-05
3.93269e-05
3.97623e-05
3.99782e-05
3.99817e-05
3.97727e-05
3.93457e-05
3.86861e-05
3.77626e-05
3.6512e-05
3.48269e-05
3.25789e-05
2.95876e-05
2.5731e-05
2.11943e-05
1.60626e-05
1.07497e-05
2.66855e-06
4.93392e-06
8.35011e-06
1.3487e-05
1.70301e-05
2.06824e-05
2.3904e-05
2.71123e-05
3.02284e-05
3.31637e-05
3.57937e-05
3.80515e-05
4.01179e-05
4.19593e-05
4.33993e-05
4.43873e-05
4.4913e-05
4.49654e-05
4.45249e-05
4.36006e-05
4.22159e-05
4.04118e-05
3.82433e-05
3.58406e-05
3.32478e-05
3.02921e-05
2.7094e-05
2.37697e-05
2.06652e-05
1.71269e-05
1.33845e-05
8.33398e-06
1.10981e-05
1.88266e-05
2.32589e-05
2.45116e-05
2.92615e-05
3.55177e-05
4.16254e-05
4.72494e-05
5.25685e-05
5.76401e-05
6.20594e-05
6.5536e-05
6.79317e-05
6.9431e-05
7.01048e-05
6.99713e-05
6.90295e-05
6.72865e-05
6.47658e-05
6.1488e-05
5.74141e-05
5.26821e-05
4.72849e-05
4.14918e-05
3.51399e-05
2.86142e-05
2.43372e-05
2.32142e-05
1.85685e-05
1.10855e-05
1.37717e-05
2.27313e-05
2.65439e-05
2.94191e-05
3.88751e-05
4.9884e-05
6.10164e-05
7.09703e-05
7.9418e-05
8.69574e-05
9.33901e-05
9.83447e-05
0.000101793
0.000103902
0.000104902
0.000104743
0.00010334
0.000100742
9.71077e-05
9.23075e-05
8.63054e-05
7.92977e-05
7.1358e-05
6.20006e-05
5.09031e-05
3.88567e-05
2.91034e-05
2.64239e-05
2.24915e-05
1.37822e-05
1.63567e-05
2.5999e-05
2.88572e-05
3.55651e-05
4.97682e-05
6.71512e-05
8.44758e-05
9.99633e-05
0.000112512
0.000122476
0.000130302
0.000136031
0.000140033
0.000142552
0.000143757
0.000143669
0.000142261
0.000139524
0.000135437
0.000129787
0.00012224
0.000112642
0.000100489
8.52944e-05
6.83739e-05
5.04603e-05
3.55637e-05
2.8862e-05
2.5901e-05
1.63773e-05
1.88105e-05
2.84525e-05
3.12359e-05
4.29672e-05
6.21111e-05
8.4831e-05
0.000108511
0.000127992
0.000142376
0.000152786
0.000160446
0.000165999
0.000169861
0.000172296
0.000173464
0.000173422
0.000172164
0.00016964
0.000165732
0.000160196
0.000152634
0.000142414
0.000128357
0.000109092
8.55026e-05
6.24531e-05
4.30698e-05
3.12477e-05
2.84774e-05
1.88366e-05
2.1084e-05
3.04326e-05
3.39581e-05
5.08883e-05
7.44468e-05
0.000102657
0.000129301
0.000149796
0.00016455
0.000174938
0.000182243
0.000187344
0.000190795
0.000192931
0.000193946
0.000193921
0.000192856
0.000190669
0.000187182
0.000182068
0.000174788
0.000164485
0.000149875
0.000129493
0.000102802
7.42602e-05
5.06384e-05
3.40904e-05
3.0488e-05
2.11217e-05
2.31326e-05
3.20813e-05
3.72606e-05
5.78121e-05
8.56704e-05
0.000117865
0.000145153
0.000165642
0.000180171
0.000190197
0.000197028
0.000201627
0.000204632
0.000206442
0.000207287
0.00020727
0.000206391
0.000204547
0.000201514
0.000196896
0.000190063
0.000180063
0.00016558
0.000145095
0.000117622
8.50048e-05
5.71813e-05
3.7443e-05
3.21246e-05
2.31667e-05
2.49389e-05
3.34203e-05
4.05917e-05
6.38625e-05
9.5721e-05
0.000129865
0.000157141
0.0001771
0.00019103
0.000200472
0.000206743
0.000210828
0.000213406
0.000214911
0.000215599
0.000215587
0.000214875
0.000213348
0.00021075
0.000206649
0.000200369
0.000190929
0.000177001
0.000157008
0.000129596
9.52027e-05
6.32712e-05
4.0799e-05
3.34507e-05
2.49675e-05
2.64804e-05
3.45145e-05
4.37113e-05
6.90985e-05
0.000104386
0.000139217
0.000166125
0.000185355
0.000198536
0.000207302
0.000212984
0.000216574
0.000218762
0.00022
0.000220553
0.000220544
0.000219976
0.000218724
0.000216523
0.000212922
0.000207232
0.00019846
0.000185268
0.000166001
0.000138986
0.00010395
6.86402e-05
4.38971e-05
3.4538e-05
2.65029e-05
2.77372e-05
3.54003e-05
4.64237e-05
7.33953e-05
0.000111212
0.00014631
0.000172722
0.000191213
0.000203657
0.00021177
0.000216904
0.000220053
0.000221908
0.000222922
0.000223364
0.000223359
0.000222907
0.000221884
0.000220021
0.000216865
0.000211725
0.000203605
0.000191148
0.000172622
0.000146126
0.000110878
7.30727e-05
4.65337e-05
3.54191e-05
2.77542e-05
2.86938e-05
3.60825e-05
4.84462e-05
7.65917e-05
0.000116197
0.000151385
0.000177342
0.000195208
0.000207033
0.000214601
0.000219284
0.000222077
0.000223671
0.000224513
0.000224871
0.000224868
0.000224504
0.000223657
0.000222059
0.000219262
0.000214575
0.000207002
0.000195165
0.000177272
0.000151257
0.000115976
7.64006e-05
4.846e-05
3.60959e-05
2.87062e-05
2.93389e-05
3.65644e-05
4.97765e-05
7.86866e-05
0.000119436
0.000154644
0.000180269
0.000197693
0.000209079
0.000216261
0.000220626
0.000223173
0.000224587
0.000225313
0.000225615
0.000225614
0.000225309
0.000224581
0.000223165
0.000220617
0.00021625
0.000209065
0.00019767
0.00018023
0.000154569
0.000119303
7.85713e-05
4.97782e-05
3.65714e-05
2.93474e-05
2.96647e-05
3.68661e-05
5.04574e-05
7.974e-05
0.000121033
0.000156237
0.000181688
0.000198883
0.000210043
0.000217026
0.000221229
0.00022365
0.000224973
0.000225641
0.000225915
0.000225915
0.00022564
0.000224972
0.000223649
0.000221228
0.000217026
0.000210043
0.000198878
0.000181673
0.000156201
0.000120961
7.96751e-05
5.0457e-05
3.68569e-05
2.96703e-05
2.96643e-05
3.68656e-05
5.04586e-05
7.97543e-05
0.000121042
0.00015624
0.000181689
0.000198884
0.000210044
0.000217027
0.000221229
0.00022365
0.000224973
0.000225641
0.000225916
0.000225916
0.000225642
0.000224975
0.000223654
0.000221235
0.000217034
0.000210053
0.000198891
0.00018169
0.000156227
0.000121003
7.97168e-05
5.04591e-05
3.68583e-05
2.96683e-05
2.9338e-05
3.65697e-05
4.97804e-05
7.87309e-05
0.000119462
0.000154653
0.000180272
0.000197694
0.000209081
0.000216262
0.000220627
0.000223173
0.000224587
0.000225314
0.000225617
0.000225618
0.000225316
0.000224591
0.000223179
0.000220636
0.000216274
0.000209094
0.000197707
0.00018028
0.000154648
0.000119436
7.87039e-05
4.9784e-05
3.65721e-05
2.93411e-05
2.86924e-05
3.60943e-05
4.84477e-05
7.66675e-05
0.000116241
0.000151397
0.000177344
0.00019521
0.000207036
0.000214604
0.000219285
0.000222077
0.00022367
0.000224513
0.000224874
0.000224875
0.000224516
0.000223675
0.000222084
0.000219294
0.000214615
0.00020705
0.000195222
0.000177351
0.00015139
0.000116212
7.66409e-05
4.84575e-05
3.60993e-05
2.8695e-05
2.7735e-05
3.54177e-05
4.63758e-05
7.35139e-05
0.000111275
0.000146321
0.00017272
0.000191215
0.000203663
0.000211776
0.000216907
0.000220052
0.000221906
0.000222921
0.000223367
0.000223368
0.000222924
0.00022191
0.000220058
0.000216914
0.000211784
0.000203672
0.000191222
0.00017272
0.000146305
0.000111233
7.34724e-05
4.64132e-05
3.54251e-05
2.77375e-05
2.6477e-05
3.45391e-05
4.36443e-05
6.92688e-05
0.000104464
0.000139222
0.000166117
0.000185358
0.000198548
0.000207314
0.00021299
0.000216574
0.000218759
0.000219998
0.000220556
0.000220557
0.000219999
0.000218761
0.000216576
0.000212991
0.000207315
0.00019855
0.000185359
0.00016611
0.000139194
0.00010441
6.92126e-05
4.37039e-05
3.455e-05
2.64797e-05
2.4934e-05
3.34523e-05
4.05584e-05
6.40795e-05
9.58034e-05
0.000129866
0.000157132
0.00017711
0.000191053
0.000200492
0.000206752
0.000210827
0.000213399
0.000214905
0.0002156
0.0002156
0.000214904
0.000213396
0.000210822
0.000206746
0.000200486
0.00019105
0.000177109
0.000157121
0.000129832
9.57439e-05
6.40085e-05
4.06162e-05
3.34696e-05
2.49368e-05
2.31251e-05
3.2114e-05
3.72384e-05
5.79943e-05
8.58299e-05
0.000117876
0.000145153
0.000165667
0.000180209
0.000190225
0.000197037
0.000201619
0.000204617
0.000206428
0.000207282
0.00020728
0.000206424
0.000204608
0.000201606