/*--------------------------------*- C++ -*----------------------------------*\
| =========                 |                                                 |
| \\      /  F ield         | OpenFOAM: The Open Source CFD Toolbox           |
|  \\    /   O peration     | Version:  2312                                  |
|   \\  /    A nd           | Website:  www.openfoam.com                      |
|    \\/     M anipulation  |                                                 |
\*---------------------------------------------------------------------------*/
FoamFile
{
    version     2.0;
    format      ascii;
    arch        "LSB;label=32;scalar=64";
    class       surfaceScalarField;
    location    "150";
    object      phi;
}
// * * * * * * * * * * * * * * * * * * * * * * * * * * * * * * * * * * * * * //

dimensions      [1 0 -1 0 0 0 0];

oriented        oriented;

internalField   nonuniform List<scalar> 
78300
(
6.90793e-05
0.000191136
0.00749917
0.00334753
0.000837207
0.0097224
0.00384942
0.004157
0.0149785
0.00445771
0.0049062
0.0196105
0.00479499
0.00571686
0.0242161
0.00484964
0.00642109
0.0285686
0.00466266
0.00701111
0.0325966
0.00429326
0.00745759
0.0362866
0.00378988
0.00777274
0.0396152
0.00319846
0.00798947
0.0425322
0.00255215
0.00813974
0.0450014
0.00187318
0.00824311
0.0469998
0.00117686
0.00831079
0.0485116
0.00047617
0.00834853
0.0495245
-0.000216098
0.00835898
0.0500302
-0.00088691
0.00834318
0.0500246
-0.00152269
0.00830064
0.0495075
-0.00210919
0.00822942
0.0484831
-0.00263153
0.00812639
0.0469599
-0.00307312
0.0079863
0.0449501
-0.00341669
0.00780225
0.0424715
-0.0036421
0.00755985
0.0395501
-0.00373489
0.00724438
0.0362232
-0.00369854
0.00684409
0.0325403
-0.0035358
0.00635856
0.028523
-0.00326236
0.00580977
0.024187
-0.00291989
0.0051798
0.0196027
-0.00287509
0.00460299
0.0149896
1.48785e-05
0.00120282
0.00974526
0.000246938
0.00752733
0.00266845
0.00487343
0.00967096
0.00505091
0.00359762
0.0177468
0.00638747
0.00654774
0.0247607
0.00698799
0.00748852
0.0306028
0.00728535
0.00826748
0.035905
0.00730539
0.00894708
0.0408161
0.00707505
0.00950707
0.0453217
0.00660971
0.00993666
0.0493913
0.00593412
0.0102395
0.0530026
0.00508868
0.0104363
0.0561331
0.00412253
0.0105546
0.0587621
0.00307963
0.0106185
0.0608762
0.00199474
0.0106459
0.0624668
0.000894899
0.0106479
0.0635279
-0.000198179
0.0106309
0.064055
-0.00126563
0.0105983
0.0640463
-0.00228996
0.0105506
0.0635017
-0.00325374
0.0104867
0.0624236
-0.00413796
0.0104025
0.0608168
-0.00492188
0.0102925
0.0586884
-0.00558224
0.0101478
0.0560493
-0.0061019
0.00995764
0.0529156
-0.00647573
0.00971285
0.0493104
-0.00671417
0.00941032
0.0452595
-0.0068298
0.00904803
0.0407883
-0.00680051
0.00860911
0.0359243
-0.0065511
0.00804717
0.0306689
-0.00548583
0.00717202
0.0248538
-0.00318572
0.00394731
0.0178451
0.00438044
0.00970248
0.00651894
0.00474714
0.0198739
0.0089983
0.0058841
0.0271609
0.00987869
0.00809155
0.034903
0.00984737
0.00880974
0.0411477
0.00950599
0.00932236
0.0465161
0.00903152
0.00978086
0.0513169
0.00843831
0.0101897
0.0556632
0.00770809
0.0105315
0.0595714
0.00683326
0.0107907
0.0630293
0.00582726
0.0109673
0.0660181
0.0047185
0.0110729
0.068523
0.00353942
0.011124
0.070534
0.00231986
0.0111365
0.0720449
0.0010845
0.0111227
0.0730514
-0.000146755
0.0110911
0.0735507
-0.00135767
0.0110475
0.0735414
-0.00253415
0.0109945
0.0730234
-0.00366334
0.0109329
0.0719989
-0.0047331
0.0108607
0.070472
-0.0057323
0.0107749
0.0684494
-0.00665282
0.010671
0.0659405
-0.00749371
0.0105456
0.0629586
-0.00826495
0.0103984
0.0595217
-0.00898409
0.0102317
0.0556504
-0.00965987
0.0100412
0.0513588
-0.0102404
0.00979494
0.0466243
-0.0104643
0.00940418
0.0413045
-0.00958364
0.00857622
0.0350423
-0.00683991
0.00588983
0.0272405
0.00391998
0.0198871
0.00674017
0.00547204
0.0279072
0.00969454
0.00699221
0.0367677
0.0105828
0.00880536
0.0444358
0.0105048
0.00930478
0.0505491
0.0100255
0.00963792
0.0557512
0.00938512
0.00993644
0.060361
0.00864801
0.0102216
0.0645131
0.00781661
0.0104808
0.0682428
0.00688422
0.0106945
0.0715431
0.00585427
0.0108511
0.0743977
0.00474158
0.0109504
0.0767917
0.0035674
0.0109997
0.0787148
0.00235418
0.0110101
0.08016
0.00112242
0.0109922
0.0811231
-0.000110636
0.0109554
0.0816012
-0.0013306
0.0109067
0.0815933
-0.00252569
0.010851
0.0810995
-0.0036859
0.010791
0.0801224
-0.00480361
0.0107282
0.0786665
-0.00587298
0.0106622
0.0767386
-0.00689208
0.0105929
0.0743488
-0.00786262
0.0105205
0.0715101
-0.00878854
0.0104458
0.0682392
-0.00966741
0.010366
0.0645524
-0.0104687
0.0102658
0.0604529
-0.0110809
0.0100999
0.0558946
-0.0111952
0.00977151
0.0507132
-0.0101762
0.00904879
0.0445462
-0.00695751
0.00670931
0.0367921
0.00444501
0.0278898
0.00784171
0.00573532
0.0361137
0.0106029
0.00767792
0.0460352
0.0111512
0.00912845
0.0536331
0.010877
0.00942373
0.059413
0.0102758
0.00960835
0.0643462
0.00953272
0.00978446
0.0687472
0.00870629
0.00997108
0.0727219
0.00780812
0.010157
0.0762943
0.00683713
0.010323
0.0794575
0.00579499
0.0104529
0.0821962
0.00468932
0.01054
0.0844957
0.00353308
0.0105852
0.0863448
0.00234187
0.0105944
0.0877358
0.00113115
0.0105758
0.0886635
-8.50924e-05
0.0105381
0.089125
-0.00129502
0.0104889
0.0891191
-0.00248889
0.0104348
0.0886464
-0.00365907
0.0103807
0.0877094
-0.00479982
0.0103301
0.086313
-0.00590755
0.0102854
0.0844642
-0.00697988
0.010248
0.0821731
-0.00801446
0.0102177
0.0794525
-0.0090048
0.0101916
0.0763169
-0.00993334
0.0101607
0.0727789
-0.0107574
0.010104
0.068838
-0.0113805
0.00998096
0.0644575
-0.0115814
0.00971745
0.0595127
-0.0108522
0.00915452
0.0536696
-0.00788113
0.00721861
0.0460017
0.00471071
0.0360718
0.0086378
0.00567782
0.0441083
0.011281
0.00789009
0.0549124
0.0115923
0.00910663
0.0623251
0.01115
0.00927642
0.0677917
0.0104406
0.00935319
0.0724689
0.00961634
0.0094339
0.0766722
0.00872501
0.00953884
0.0804821
0.00777878
0.0096597
0.0839108
0.0067798
0.00977749
0.0869491
0.0057289
0.00987579
0.0895821
0.0046302
0.00994466
0.0917952
0.00349124
0.00998106
0.0935768
0.00232209
0.00998712
0.0949182
0.00113378
0.00996841
0.0958138
-6.3112e-05
0.00993218
0.0962602
-0.00125917
0.00988621
0.0962562
-0.00244621
0.00983768
0.0958022
-0.00361778
0.00979304
0.094901
-0.00476855
0.00975719
0.0935574
-0.00589402
0.00973358
0.0917785
-0.0069892
0.00972322
0.089574
-0.00804702
0.00972401
0.0869561
-0.00905487
0.00972898
0.0839377
-0.00999132
0.00972577
0.0805299
-0.0108202
0.00969535
0.0767349
-0.0114722
0.00960733
0.07253
-0.011787
0.00941037
0.0678239
-0.0113013
0.00898381
0.0622995
-0.00853636
0.00738294
0.0548385
0.00481232
0.0440507
0.00918641
0.0053977
0.0517639
0.0116969
0.00772415
0.0632325
0.0118701
0.00877229
0.0704211
0.0113343
0.00887954
0.0756252
0.0105584
0.0088918
0.0800874
0.00967969
0.00890739
0.084114
0.00874283
0.00895044
0.0877724
0.00776252
0.00901651
0.0910685
0.00674243
0.0090903
0.0939915
0.00568394
0.00915639
0.0965264
0.00458921
0.00920433
0.0986591
0.00346267
0.00922897
0.100377
0.00231058
0.00923009
0.101673
0.00114039
0.00921105
0.102538
-4.0131e-05
0.00917773
0.10297
-0.00122338
0.00913715
0.102968
-0.00240247
0.00909673
0.10253
-0.003571
0.0090632
0.101662
-0.00472301
0.00904199
0.100366
-0.00585219
0.00903628
0.0986505
-0.00695112
0.00904608
0.0965246
-0.00800974
0.00906708
0.0939997
-0.00901452
0.00909052
0.0910883
-0.00994691
0.00910406
0.0878013
-0.0107797
0.00909283
0.0841442
-0.0114634
0.00903628
0.0801048
-0.0118697
0.00889863
0.0756107
-0.0115681
0.00858037
0.0703618
-0.00902184
0.00726765
0.0631461
0.00476243
0.0516982
0.00954686
0.00497492
0.0589333
0.0119238
0.00726231
0.0708911
0.0120107
0.00817067
0.0778533
0.0114337
0.00825055
0.0828351
0.0106288
0.00823234
0.0871179
0.00972313
0.00821062
0.0909916
0.00876105
0.0082123
0.0945151
0.00775981
0.00823741
0.0976913
0.00672597
0.00827483
0.100509
0.00566185
0.00831208
0.102955
0.00456924
0.00833959
0.105013
0.00345085
0.00835178
0.106674
0.00231067
0.00834713
0.107926
0.00115379
0.00832758
0.108763
-1.39266e-05
0.00829763
0.109182
-0.00118632
0.00826342
0.10918
-0.00235692
0.00823173
0.108759
-0.00351912
0.00820893
0.107919
-0.00466598
0.00820007
0.106667
-0.00578978
0.00820754
0.105009
-0.00688166
0.00823022
0.102954
-0.00793139
0.00826284
0.100514
-0.00892713
0.00829652
0.0977007
-0.00985472
0.00832081
0.0945257
-0.0106944
0.00832528
0.0909964
-0.0114079
0.00829713
0.0871063
-0.0118851
0.00820961
0.0827953
-0.0117264
0.00797905
0.0777812
-0.00937509
0.00691474
0.0708078
0.00457232
0.0588724
0.00979113
0.00445281
0.0654831
0.0120321
0.00657788
0.0778022
0.0120569
0.00735462
0.084547
0.0114641
0.00742159
0.0893402
0.0106536
0.00739307
0.0934731
0.00974131
0.00735422
0.0972168
0.00877068
0.00733217
0.100623
0.00776115
0.00732976
0.103694
0.00672138
0.00734012
0.10642
0.00565514
0.00735415
0.108785
0.0045646
0.00736405
0.110778
0.00345195
0.00736484
0.112386
0.0023201
0.00735465
0.113599
0.00117287
0.00733454
0.114411
1.49942e-05
0.00730794
0.114818
-0.00114798
0.00727991
0.114817
-0.00230975
0.00725622
0.114408
-0.00346344
0.00724248
0.113595
-0.00460128
0.00724271
0.112381
-0.00571501
0.00725861
0.110775
-0.00679571
0.00728835
0.108784
-0.00783431
0.00732672
0.10642
-0.00882164
0.00736598
0.103695
-0.0097476
0.00739822
0.100621
-0.0105971
0.00741664
0.0972062
-0.0113375
0.00741362
0.0934472
-0.0118702
0.0073683
0.0892924
-0.0118233
0.00721033
0.0844776
-0.00964168
0.00636242
0.0777294
0.00424967
0.0654331
0.00995918
0.00385607
0.0713031
0.0120707
0.0057269
0.0838867
0.0120464
0.00637222
0.0904322
0.0114476
0.00642949
0.0950668
0.0106419
0.00640016
0.0990743
0.00973464
0.00635644
0.102708
0.00876704
0.00632291
0.106016
0.00775885
0.00630407
0.108997
0.00671998
0.00629622
0.111643
0.00565542
0.00629324
0.11394
0.00456802
0.00628948
0.115875
0.00346016
0.006281
0.117438
0.00233449
0.0062662
0.118617
0.00119446
0.00624569
0.119407
4.44044e-05
0.00622209
0.119803
-0.00111036
0.00619944
0.119802
-0.00226355
0.00618242
0.119405
-0.00340791
0.00617547
0.118615
-0.0045356
0.00618181
0.117435
-0.00563835
0.00620237
0.115872
-0.00670806
0.00623531
0.113937
-0.00773724
0.00627609
0.11164
-0.00871923
0.00631876
0.108992
-0.0096466
0.00635769
0.106007
-0.0105069
0.00638884
0.102692
-0.0112702
0.00640737
0.0990452
-0.0118453
0.00639684
0.0950224
-0.011883
0.00629906
0.0903744
-0.00984275
0.00564105
0.0838284
0.00380769
0.0712648
0.0100771
0.00319726
0.0763005
0.0120726
0.00475139
0.0890745
0.0120064
0.00526317
0.0954468
0.0114041
0.00530874
0.0999497
0.0106069
0.0052814
0.103853
0.00970992
0.00523928
0.107397
0.00875132
0.00520222
0.110621
0.00775022
0.00517499
0.113529
0.00671679
0.0051561
0.116109
0.00565672
0.00514181
0.118349
0.00457357
0.00512839
0.120236
0.00347017
0.00511315
0.12176
0.00234947
0.00509497
0.122911
0.00121501
0.00507438
0.123682
7.11579e-05
0.0050534
0.124069
-0.00107667
0.00503516
0.124068
-0.0022221
0.0050233
0.123681
-0.00335793
0.00502125
0.122909
-0.00447641
0.00503137
0.121758
-0.00556979
0.00505423
0.120233
-0.00663097
0.00508827
0.118345
-0.00765398
0.00513
0.116104
-0.0086337
0.00517513
0.113522
-0.00956423
0.00521989
0.11061
-0.0104341
0.00526188
0.107379
-0.0112145
0.00529774
0.103827
-0.0118199
0.00531499
0.0999138
-0.0119194
0.00526659
0.0954036
-0.00999292
0.00477711
0.0890318
0.00326055
0.076273
0.010161
0.00248459
0.0803964
0.0120594
0.00368183
0.0933052
0.0119576
0.00405919
0.0995348
0.0113518
0.00408995
0.103931
0.0105622
0.00406478
0.107751
0.00967613
0.00402683
0.111221
0.00872837
0.0039907
0.11438
0.00773653
0.00396046
0.117228
0.00671049
0.00393579
0.119756
0.00565621
0.00391474
0.12195
0.00457773
0.00389515
0.1238
0.00347843
0.00387549
0.125293
0.00236173
0.0038552
0.126421
0.00123151
0.00383491
0.127177
9.24582e-05
0.00381622
0.127556
-0.00104991
0.00380157
0.127556
-0.00218917
0.00379369
0.127176
-0.00331823
0.00379514
0.12642
-0.00442969
0.00380766
0.125291
-0.00551648
0.00383165
0.123797
-0.00657233
0.00386594
0.121947
-0.00759221
0.00390809
0.119751
-0.00857185
0.00395515
0.117222
-0.0095058
0.00400463
0.11437
-0.0103828
0.00405493
0.111207
-0.0111748
0.0041037
0.107731
-0.0117998
0.00414162
0.103905
-0.0119421
0.00413308
0.0995048
-0.010103
0.00379564
0.0932765
0.00262462
0.0803777
0.0102197
0.00172704
0.0835261
0.0120437
0.0025423
0.0965276
0.011914
0.00278644
0.102647
0.0113044
0.00280035
0.106963
0.0105202
0.00277667
0.110719
0.00964308
0.00274367
0.114134
0.00870486
0.00271075
0.117243
0.0077216
0.00268073
0.120047
0.00670255
0.00265385
0.122535
0.00565364
0.00262932
0.124696
0.00457926
0.00260623
0.126517
0.00348323
0.002584
0.127987
0.00236942
0.00256269
0.129098
0.00124215
0.00254303
0.129843
0.00010636
0.00252644
0.130216
-0.00103224
0.00251477
0.130216
-0.00216727
0.0025101
0.129842
-0.00329184
0.00251429
0.129097
-0.00439897
0.00252859
0.127986
-0.00548209
0.00255333
0.126515
-0.00653553
0.00258772
0.124693
-0.00755475
0.00263015
0.122531
-0.00853559
0.00267855
0.120041
-0.00947248
0.00273125
0.117235
-0.010354
0.002787
0.114123
-0.0111524
0.00284411
0.110705
-0.0117885
0.00289629
0.106945
-0.0119578
0.00291949
0.102628
-0.0101812
0.00272177
0.0965093
0.00191809
0.0835137
0.0102579
0.000936499
0.0856402
0.0120323
0.00135467
0.0987005
0.011884
0.00146777
0.104745
0.0112715
0.00146427
0.109006
0.0104905
0.00144176
0.112719
0.00961916
0.00141404
0.116097
0.00868737
0.00138551
0.119173
0.00771
0.00135759
0.121947
0.00669572
0.00133066
0.124409
0.00565038
0.00130474
0.126547
0.00457853
0.00127989
0.128349
0.00348432
0.00125634
0.129805
0.002372
0.00123471
0.130904
0.00124618
0.00121593
0.131641
0.000112053
0.0012013
0.13201
-0.00102462
0.00119229
0.13201
-0.00215751
0.00119043
0.131641
-0.00327996
0.00119705
0.130903
-0.00438535
0.00121304
0.129804
-0.00546747
0.00123862
0.128348
-0.00652099
0.00127329
0.126545
-0.00754135
0.00131587
0.124407
-0.00852424
0.00136494
0.121943
-0.00946357
0.0014191
0.119168
-0.0103475
0.00147732
0.116089
-0.0111484
0.00153847
0.11271
-0.0117888
0.00159935
0.108994
-0.0119718
0.00164774
0.104733
-0.0102332
0.0015814
0.098689
0.00116043
0.085632
0.0102781
0.000126982
0.0867058
0.0120292
0.000140507
0.0997949
0.0118725
0.000124534
0.105802
0.0112588
0.000104306
0.110035
0.0104792
8.34773e-05
0.113726
0.00961016
6.16245e-05
0.117085
0.00868084
3.83279e-05
0.120145
0.00770553
1.35632e-05
0.122904
0.00669269
-1.2292e-05
0.125353
0.00564813
-3.85495e-05
0.12748
0.00457654
-6.43337e-05
0.129272
0.00348224
-8.86178e-05
0.13072
0.00236971
-0.000110292
0.131813
0.00124372
-0.00012814
0.132546
0.000109546
-0.000140935
0.132914
-0.00102704
-0.000147459
0.132914
-0.00215983
-0.000146613
0.132546
-0.0032824
-0.000137514
0.131813
-0.00438836
-0.000119619
0.130719
-0.00547177
-9.2851e-05
0.129271
-0.00652733
-5.76592e-05
0.127478
-0.00755035
-1.49822e-05
0.125351
-0.00853604
3.39312e-05
0.122901
-0.00947768
8.7798e-05
0.120141
-0.0103628
0.000145632
0.11708
-0.0111634
0.000206971
0.11372
-0.0118029
0.000271981
0.110028
-0.0119883
0.000340588
0.105794
-0.0102633
0.000400514
0.0997878
0.000371093
0.0867004
0.010282
-0.000687396
0.0867067
0.0120367
-0.00107856
0.0997963
0.011882
-0.00122206
0.105803
0.011269
-0.00125745
0.110036
0.010489
-0.00127526
0.113727
0.00961882
-0.00129016
0.117086
0.00868767
-0.00130741
0.120145
0.00771015
-0.0013285
0.122904
0.00669496
-0.00135304
0.125353
0.00564804
-0.00137956
0.12748
0.00457415
-0.00140632
0.129272
0.00347769
-0.00143148
0.13072
0.00236314
-0.00145337
0.131814
0.0012353
-0.00147048
0.132547
9.94088e-05
-0.00148158
0.132914
-0.00103886
-0.00148568
0.132914
-0.00217345
-0.00148205
0.132546
-0.00329811
-0.0014702
0.131813
-0.00440665
-0.00144997
0.130719
-0.00549322
-0.00142153
0.129272
-0.00655249
-0.00138545
0.127479
-0.0075795
-0.00134271
0.125352
-0.00856889
-0.00129464
0.122903
-0.0095132
-0.00124267
0.120143
-0.0103991
-0.00118777
0.117083
-0.0111978
-0.00112955
0.113724
-0.0118324
-0.00106413
0.110031
-0.0120096
-0.000978941
0.105798
-0.0102735
-0.000795346
0.0997917
-0.000431036
0.0867029
0.0102699
-0.00149292
0.0856432
0.0120548
-0.002281
0.0987048
0.0119125
-0.00255077
0.104749
0.0113019
-0.00259881
0.109009
0.0105197
-0.00261143
0.112722
0.00964462
-0.00261784
0.116099
0.0087074
-0.00262837
0.119174
0.00772359
-0.00264591
0.121948
0.00670246
-0.00266976
0.12441
0.00565024
-0.00269749
0.126548
0.00457171
-0.00272615
0.12835
0.00347116
-0.002753
0.129805
0.00235294
-0.00277571
0.130904
0.00122171
-0.00279251
0.131641
8.25361e-05
-0.00280211
0.132011
-0.00105904
-0.00280376
0.132011
-0.00219712
-0.0027971
0.131641
-0.00332558
-0.00278208
0.130904
-0.00443835
-0.00275893
0.129804
-0.00552961
-0.00272818
0.128349
-0.00659394
-0.00269066
0.126547
-0.00762609
-0.00264764
0.124409
-0.00862019
-0.00260079
0.121947
-0.00956793
-0.00255188
0.119173
-0.0104549
-0.00250198
0.116097
-0.0112511
-0.00244973
0.11272
-0.0118775
-0.002387
0.109006
-0.0120364
-0.00228805
0.104746
-0.0102647
-0.00198127
0.0987014
-0.00122824
0.0856401
0.0102408
-0.00227681
0.0835314
0.0120819
-0.00344571
0.0965357
0.0119613
-0.00384011
0.102655
0.0113542
-0.00389681
0.106969
0.0105674
-0.00390127
0.110723
0.0096839
-0.00389762
0.114137
0.00873685
-0.0039013
0.117245
0.0077434
-0.00391643
0.120048
0.00671363
-0.00394146
0.122536
0.00565398
-0.00397241
0.124696
0.00456912
-0.00400481
0.126517
0.00346306
-0.00403478
0.127988
0.00233986
-0.00405932
0.129099
0.00120389
-0.00407636
0.129843
6.00519e-05
-0.00408468
0.130217
-0.00108628
-0.0040838
0.130217
-0.0022293
-0.00407375
0.129843
-0.00336298
-0.00405497
0.129098
-0.00448125
-0.00402815
0.127987
-0.0055783
-0.0039942
0.126516
-0.00664862
-0.00395436
0.124695
-0.00768676
-0.00391035
0.122535
-0.00868643
-0.0038644
0.120047
-0.00963853
-0.00381895
0.117244
-0.0105273
-0.00377541
0.114136
-0.011321
-0.00373136
0.110722
-0.0119369
-0.00367417
0.106967
-0.0120678
-0.00356431
0.102652
-0.0102358
-0.00313366
0.0965324
-0.00200414
0.0835284
0.0101926
-0.00302941
0.0804047
0.0121145
-0.00455161
0.093318
0.0120237
-0.00506677
0.0995465
0.0114196
-0.00512629
0.10394
0.0106251
-0.00511941
0.107757
0.00972994
-0.00510493
0.111225
0.00877044
-0.00510323
0.114382
0.00776552
-0.00511882
0.117229
0.00672595
-0.0051485
0.119756
0.00565811
-0.00518599
0.12195
0.00456628
-0.00522486
0.1238
0.003454
-0.0052599
0.125294
0.00232491
-0.0052875
0.126422
0.00118312
-0.0053054
0.127178
3.33756e-05
-0.00531261
0.127558
-0.00111903
-0.005309
0.127558
-0.00226827
-0.00529513
0.127178
-0.00340826
-0.00527191
0.126422
-0.00453289
-0.00524045
0.125293
-0.00563629
-0.00520208
0.123799
-0.00671291
-0.00515848
0.12195
-0.00775722
-0.00511194
0.119755
-0.00876273
-0.0050655
0.117229
-0.0097198
-0.00502257
0.114382
-0.0106114
-0.00498538
0.111224
-0.0114031
-0.00495082
0.107756
-0.0120072
-0.00490155
0.103938
-0.0121014
-0.00478433
0.0995433
-0.0101855
-0.00422962
0.0933141
-0.00274609
0.0804012
0.0101216
-0.0037448
0.0763126
0.0121462
-0.00557495
0.0890932
0.0120906
-0.00620337
0.0954637
0.0114872
-0.00625848
0.0999622
0.0106821
-0.00623828
0.103861
0.0097732
-0.0062146
0.107401
0.00880077
-0.00621189
0.110623
0.00778505
-0.00623353
0.113529
0.00673683
-0.00627342
0.116108
0.00566188
-0.00632214
0.118348
0.00456371
-0.00637094
0.120236
0.00344526
-0.00641332
0.121761
0.00230973
-0.00644516
0.122913
0.00116114
-0.00646445
0.123684
4.20089e-06
-0.00647056
0.124071
-0.00115558
-0.00646402
0.124071
-0.00231219
-0.00644587
0.123684
-0.00345935
-0.00641745
0.122912
-0.00459074
-0.00638023
0.12176
-0.00570037
-0.00633583
0.120235
-0.00678265
-0.00628632
0.118347
-0.0078322
-0.00623455
0.116107
-0.00884263
-0.00618456
0.113528
-0.00980418
-0.00614119
0.110622
-0.0106989
-0.00610808
0.1074
-0.0114897
-0.00608228
0.103859
-0.0120816
-0.00604218
0.0999592
-0.0121318
-0.00592176
0.0954592
-0.0101102
-0.00524469
0.0890879
-0.00344551
0.0763081
0.0100192
-0.00441802
0.0713195
0.0121637
-0.00648368
0.0839115
0.0121461
-0.00721532
0.090455
0.0115411
-0.00726007
0.0950825
0.0107235
-0.00722795
0.099083
0.00980211
-0.0072018
0.102712
0.00882
-0.00720688
0.106016
0.00779769
-0.0072437
0.108996
0.00674485
-0.00730164
0.111641
0.00566593
-0.00736751
0.113939
0.00456331
-0.00743008
0.115875
0.00343926
-0.00748188
0.117439
0.00229686
-0.00751887
0.118619
0.00114022
-0.00753967
0.11941
-2.5437e-05
-0.00754457
0.119807
-0.00119417
-0.00753482
0.119807
-0.00235944
-0.00751203
0.11941
-0.00351445
-0.00747784
0.118619
-0.00465254
-0.00743378
0.117438
-0.00576747
-0.00738148
0.115874
-0.00685366
-0.0073231
0.113938
-0.00790591
-0.00726205
0.11164
-0.00891836
-0.00720339
0.108995
-0.00988175
-0.0071538
0.106015
-0.010778
-0.0071191
0.102711
-0.0115677
-0.00709752
0.0990807
-0.0121471
-0.00706521
0.0950782
-0.0121471
-0.00694465
0.0904484
-0.0100013
-0.00614796
0.0839047
-0.00409481
0.0713136
0.00986826
-0.00503838
0.0655043
0.0121416
-0.00723127
0.077833
0.012165
-0.00805714
0.0845743
0.0115588
-0.00809208
0.0893566
0.0107323
-0.00805815
0.0934799
0.00980527
-0.0080438
0.0972171
0.00882216
-0.0080714
0.10062
0.00780186
-0.00813635
0.10369
0.00675164
-0.00822225
0.106416
0.00567372
-0.00831163
0.108783
0.00456926
-0.0083914
0.110778
0.00344016
-0.0084539
0.112387
0.00228987
-0.00849611
0.113602
0.0011233
-0.008518
0.114416
-5.34208e-05
-0.00852127
0.114824
-0.0012333
-0.00850815
0.114824
-0.00240887
-0.00848077
0.114415
-0.00357256
-0.0084407
0.113601
-0.00471703
-0.00838911
0.112386
-0.00583557
-0.00832715
0.110776
-0.00692248
-0.00825659
0.108782
-0.00797293
-0.00818091
0.106414
-0.00898191
-0.00810614
0.103689
-0.00994128
-0.0080411
0.100619
-0.0108337
-0.0079946
0.097216
-0.0116187
-0.00796695
0.0934777
-0.0121825
-0.00793458
0.0893516
-0.0121249
-0.00781202
0.0845655
-0.00984198
-0.00689639
0.0778242
-0.00468121
0.0654966
0.00963706
-0.00557677
0.0589587
0.0120384
-0.0077519
0.0709255
0.0121118
-0.00867303
0.077881
0.0115139
-0.00871292
0.0828479
0.0106915
-0.00870103
0.0871188
0.00977438
-0.00872312
0.0909857
0.00880604
-0.00879476
0.0945065
0.00780134
-0.00890392
0.0976833
0.00676366
-0.00902804
0.100504
0.00569267
-0.00914619
0.102952
0.00458863
-0.00924482
0.105014
0.00345398
-0.00931761
0.106676
0.00229344
-0.00936375
0.107931
0.00111359
-0.00938554
0.10877
-7.77264e-05
-0.00938657
0.109191
-0.00127199
-0.00937022
0.109191
-0.00246037
-0.0093389
0.108769
-0.00363405
-0.00929382
0.107929
-0.00478463
-0.00923512
0.106675
-0.00590465
-0.00916261
0.105012
-0.00698793
-0.00907698
0.10295
-0.00802982
-0.008981
0.100502
-0.00902641
-0.00888104
0.0976825
-0.0099714
-0.0087878
0.0945065
-0.0108494
-0.00871332
0.0909859
-0.0116197
-0.00866105
0.087118
-0.0121584
-0.00861018
0.0828434
-0.0120302
-0.00847262
0.0778711
-0.0096046
-0.00743061
0.0709148
-0.00517745
0.058949
0.00927483
-0.00597306
0.0517916
0.0117923
-0.0079585
0.0632662
0.0119396
-0.00900226
0.0704419
0.0113794
-0.00908768
0.0756275
0.0105905
-0.00913934
0.0800773
0.00971022
-0.00923264
0.0840986
0.00877937
-0.00937378
0.0877571
0.00780732
-0.00954324
0.0910564
0.0067928
-0.00971332
0.093984
0.00573368
-0.00986227
0.0965237
0.00463045
-0.00997815
0.0986606
0.00348754
-0.0100583
0.100382
0.0023123
-0.0101054
0.10168
0.00111408
-0.0101252
0.102548
-9.68955e-05
-0.0101233
0.102983
-0.0013101
-0.0101042
0.102982
-0.00251489
-0.0100706
0.102547
-0.00370089
-0.0100227
0.101678
-0.00485813
-0.00995893
0.10038
-0.00597768
-0.00987699
0.0986579
-0.00705242
-0.00977518
0.0965215
-0.00807752
-0.00965442
0.0939827
-0.00904982
-0.00952036
0.0910566
-0.00996499
-0.00938454
0.0877591
-0.0108102
-0.00926128
0.084102
-0.0115441
-0.00915741
0.0800803
-0.0120332
-0.00905495
0.0756264
-0.0118109
-0.00886809
0.0704332
-0.009247
-0.00767113
0.0632537
-0.00553475
0.0517805
0.00869804
-0.00611678
0.0441343
0.0113221
-0.007754
0.0549392
0.0115995
-0.00899514
0.06233
0.011139
-0.00920104
0.0677759
0.0104318
-0.00937088
0.0724431
0.0096248
-0.0095738
0.0766456
0.00875785
-0.00980837
0.0804601
0.00783522
-0.0100494
0.083896
0.0068525
-0.0102678
0.0869418
0.00580701
-0.0104441
0.0895814
0.00470193
-0.0105716
0.0917998
0.00354538
-0.0106532
0.0935852
0.00234907
-0.010697
0.0949298
0.00112608
-0.0107124
0.0958283
-0.000110533
-0.010707
0.0962778
-0.00134789
-0.0106865
0.0962771
-0.00257368
-0.010653
0.0958262
-0.00377543
-0.0106056
0.0949266
-0.00494107
-0.0105408
0.0935813
-0.00605937
-0.0104532
0.0917957
-0.00712122
-0.0103374
0.0895781
-0.00812072
-0.0101906
0.0869403
-0.00905504
-0.0100161
0.0838972
-0.00992146
-0.00982454
0.080465
-0.0107081
-0.00963129
0.0766541
-0.0113701
-0.0094445
0.0724534
-0.0117591
-0.00924701
0.0677831
-0.0113921
-0.00894728
0.0623268
-0.0086945
-0.00752669
0.0549257
-0.00566432
0.0441237
0.00784145
-0.00587207
0.0361325
0.0105526
-0.00702878
0.0460457
0.0110709
-0.00862246
0.0536135
0.0108007
-0.00904549
0.0593724
0.0102301
-0.00938755
0.0643026
0.00953177
-0.00973425
0.068711
0.00875222
-0.0100805
0.0726966
0.00789298
-0.0103984
0.0762807
0.00694719
-0.0106611
0.0794541
0.00591398
-0.0108557
0.0822006
0.0048015
-0.0109849
0.0845054
0.00362459
-0.0110605
0.0863582
0.00240077
-0.0110965
0.0877521
0.00114743
-0.0111055
0.0886829
-0.000119295
-0.0110971
0.0891482
-0.00138489
-0.0110766
0.0891471
-0.00263517
-0.0110459
0.0886796
-0.00385589
-0.011003
0.0877469
-0.00503218
-0.0109422
0.0863517
-0.00614908
-0.0108551
0.0844985
-0.00719394
-0.0107312
0.0821944
-0.00815831
-0.0105617
0.0794505
-0.00903945
-0.0103439
0.0762814
-0.00983701
-0.0100854
0.0727034
-0.0105395
-0.00980156
0.068725
-0.0110904
-0.00950179
0.0643235
-0.0113066
-0.00916716
0.0593941
-0.0106978
-0.00867403
0.0536224
-0.00788369
-0.00689648
0.0460378
-0.00545427
0.0361249
0.00665927
-0.00507473
0.0279157
0.0095421
-0.00583675
0.0367553
0.0104183
-0.00784754
0.0443867
0.0103846
-0.00852795
0.0504823
0.00997579
-0.00908473
0.0556935
0.00941053
-0.00961498
0.0603221
0.00874042
-0.010095
0.0644925
0.00795822
-0.0104928
0.0682372
0.00705337
-0.0107906
0.0715488
0.00603013
-0.0109916
0.0744107
0.00490606
-0.0111133
0.0768089
0.00370539
-0.0111779
0.0787344
0.00245277
-0.0112052
0.0801817
0.00117001
-0.0112095
0.0811476
-0.000124782
-0.0112
0.0816301
-0.00141577
-0.0111816
0.0816284
-0.00268811
-0.0111553
0.0811426
-0.00392587
-0.0111185
0.0801736
-0.00511095
-0.0110647
0.0787238
-0.00622375
-0.0109827
0.0767969
-0.00724482
-0.0108575
0.0743989
-0.00816044
-0.0106711
0.0715395
-0.00896691
-0.0104098
0.068233
-0.00966975
-0.0100712
0.0644965
-0.0102668
-0.00966647
0.060338
-0.0106936
-0.00921151
0.0557241
-0.0107124
-0.0087041
0.0505218
-0.00976303
-0.00799961
0.0444141
-0.00676241
-0.0058266
0.0367597
-0.00475638
0.027912
0.00639636
-0.00507547
0.019871
0.00878409
-0.00342466
0.027127
0.00969685
-0.00627385
0.0348407
0.00976105
-0.00723218
0.0410776
0.00952964
-0.00808884
0.0464651
0.00915165
-0.00885242
0.0512917
0.00863091
-0.00948017
0.0556586
0.00794529
-0.00995251
0.0595814
0.00708829
-0.0102764
0.0630485
0.00607785
-0.01048
0.0660421
0.0049475
-0.0105988
0.0685484
0.00373358
-0.0106632
0.0705596
0.00246753
-0.0106941
0.0720709
0.00117393
-0.0107044
0.0730793
-0.000128351
-0.0107011
0.073583
-0.00142402
-0.0106872
0.0735809
-0.00269847
-0.0106629
0.0730729
-0.00393528
-0.0106259
0.0720602
-0.00511402
-0.0105706
0.0705451
-0.00620903
-0.0104862
0.068531
-0.0071917
-0.010355
0.0660233
-0.00803641
-0.0101515
0.0630308
-0.00873084
-0.00984709
0.0595678
-0.00928245
-0.00941948
0.0556526
-0.00970876
-0.00886194
0.051298
-0.00999622
-0.00818372
0.0464892
-0.00997206
-0.0074071
0.0411165
-0.00903321
-0.00648488
0.0348736
-0.00652628
-0.00355173
0.027145
-0.00488935
0.0198733
0.00244857
-0.000162565
0.00966024
0.00489187
-0.00068225
0.0177039
0.00634165
-0.00395286
0.0247173
0.00709679
-0.0047719
0.0305703
0.00751746
-0.00564656
0.03589
0.0076203
-0.00641246
0.0408193
0.00743299
-0.00704382
0.0453383
0.00697847
-0.00750845
0.0494155
0.00629024
-0.00782469
0.0530302
0.00541705
-0.00803364
0.0561613
0.0044141
-0.00817441
0.0587893
0.00332795
-0.00827042
0.0609021
0.00219332
-0.0083346
0.0624922
0.00103476
-0.00837305
0.0635546
-0.000129548
-0.00838846
0.0640856
-0.00128474
-0.00838162
0.0640836
-0.00241649
-0.00835235
0.0635486
-0.00350823
-0.00829961
0.0624825
-0.00453836
-0.00822063
0.0608888
-0.00547713
-0.00810975
0.0587731
-0.00628513
-0.00795541
0.0561429
-0.00691746
-0.00773637
0.053011
-0.00733649
-0.00741993
0.0493969
-0.00751771
-0.00697348
0.0453226
-0.0074465
-0.00638118
0.0408101
-0.00709854
-0.00567008
0.0358913
-0.00644351
-0.0048591
0.0305827
-0.00506477
-0.00411269
0.0247371
-0.00264709
-0.000807155
0.0177274
-0.000182872
0.00966814
0.00010921
0.00748761
0.00355275
0.00971227
0.00426383
0.0149734
0.00500434
0.0196125
0.00540261
0.0242254
0.00545079
0.0285837
0.0052119
0.0326158
0.00477048
0.0363078
0.00419373
0.0396366
0.00353751
0.0425528
0.00283717
0.0450208
0.0021125
0.0470182
0.00137419
0.0485298
0.000629804
0.0495437
-0.000113596
0.0500519
-0.000848679
0.0500504
-0.00156795
0.0495392
-0.00226396
0.0485225
-0.00292871
0.0470081
-0.00355153
0.0450079
-0.00411438
0.0425377
-0.00458656
0.0396203
-0.00492341
0.0362917
-0.00507777
0.0326016
-0.00498706
0.0285725
-0.00460445
0.0242175
-0.00394777
0.0196092
-0.00339743
0.0149743
-8.30144e-05
0.00971648
0.0074935
0.000551041
0.000547152
0.00640098
-0.000256501
0.00196871
0.00856123
-0.00157402
0.00290479
0.0133912
-0.00227432
0.00277679
0.017534
-0.00241487
0.00276482
0.0215918
-0.0020918
0.00284183
0.0254037
-0.00152609
0.00309158
0.0289393
-0.000903997
0.0034697
0.0321948
-0.000351334
0.00391118
0.0351513
6.59694e-05
0.00435685
0.037758
0.000330046
0.00476315
0.0399742
0.00045203
0.00510488
0.041773
0.000456629
0.0053702
0.0431368
0.000372695
0.00555544
0.044053
0.000229428
0.00566046
0.044513
5.53503e-05
0.00568614
0.0445125
-0.000121195
0.00563294
0.0440511
-0.000271957
0.00550142
0.0431325
-0.000369912
0.00529356
0.0417643
-0.000391084
0.00501306
0.0399582
-0.000320517
0.00466808
0.0377329
-0.000160868
0.0042728
0.0351176
5.83907e-05
0.00385016
0.0321538
0.000276925
0.00342815
0.0288936
0.000399818
0.00304276
0.0253574
0.000326077
0.00270997
0.0215508
2.96788e-05
0.0023926
0.0175065
-0.00053755
0.00217154
0.0133853
-0.000664481
0.00130132
0.00857087
0.000447937
0.00641491
0.00226954