/*--------------------------------*- C++ -*----------------------------------*\
| =========                 |                                                 |
| \\      /  F ield         | OpenFOAM: The Open Source CFD Toolbox           |
|  \\    /   O peration     | Version:  2312                                  |
|   \\  /    A nd           | Website:  www.openfoam.com                      |
|    \\/     M anipulation  |                                                 |
\*---------------------------------------------------------------------------*/
FoamFile
{
    version     2.0;
    format      ascii;
    arch        "LSB;label=32;scalar=64";
    class       volScalarField;
    location    "150";
    object      T;
}
// * * * * * * * * * * * * * * * * * * * * * * * * * * * * * * * * * * * * * //

dimensions      [0 0 0 1 0 0 0];

internalField   nonuniform List<scalar> 
27000
(
427.831
356.592
347.742
343.394
342.553
342.552
342.719
342.931
343.155
343.356
343.526
343.665
343.771
343.844
343.884
343.891
343.866
343.808
343.718
343.595
343.438
343.24
343.007
342.765
342.54
342.439
343.124
347.266
355.861
426.344
335.823
355.101
348.935
347.196
346.763
346.827
346.97
347.1
347.212
347.307
347.386
347.451
347.503
347.542
347.567
347.579
347.578
347.563
347.532
347.483
347.409
347.303
347.154
346.954
346.701
346.495
346.784
348.426
354.514
335.885
342.333
345.737
348.392
348.15
347.94
347.886
347.897
347.917
347.933
347.948
347.964
347.98
347.996
348.012
348.026
348.037
348.045
348.049
348.048
348.038
348.016
347.976
347.912
347.823
347.728
347.702
347.866
348.13
345.645
342.412
342.277
346.156
347.77
348.086
348.081
348.053
348.042
348.04
348.038
348.036
348.036
348.039
348.045
348.053
348.062
348.072
348.08
348.086
348.088
348.084
348.071
348.045
348.006
347.959
347.924
347.925
347.938
347.675
346.148
342.324
342.669
346.625
347.813
348.039
348.079
348.073
348.063
348.054
348.047
348.041
348.036
348.034
348.036
348.04
348.046
348.052
348.059
348.065
348.067
348.065
348.055
348.039
348.017
347.997
347.988
347.994
347.978
347.796
346.663
342.73
343.069
346.938
347.88
348.041
348.07
348.067
348.057
348.047
348.038
348.029
348.023
348.019
348.017
348.019
348.022
348.027
348.033
348.037
348.04
348.039
348.034
348.027
348.019
348.016
348.023
348.036
348.033
347.911
347.014
343.145
343.455
347.157
347.92
348.043
348.062
348.057
348.046
348.035
348.024
348.015
348.008
348.003
348
348
348.002
348.005
348.009
348.013
348.016
348.017
348.017
348.017
348.019
348.027
348.043
348.063
348.069
347.98
347.252
343.535
343.796
347.321
347.947
348.041
348.052
348.045
348.033
348.021
348.011
348.001
347.994
347.988
347.985
347.984
347.985
347.988
347.991
347.994
347.997
348
348.004
348.009
348.018
348.032
348.053
348.076
348.087
348.02
347.417
343.866
344.091
347.45
347.97
348.04
348.043
348.034
348.021
348.009
347.998
347.989
347.982
347.977
347.974
347.972
347.973
347.974
347.977
347.98
347.984
347.988
347.994
348.002
348.014
348.031
348.054
348.078
348.093
348.042
347.534
344.146
344.339
347.552
347.991
348.041
348.037
348.024
348.01
347.998
347.988
347.98
347.973
347.968
347.965
347.964
347.964
347.965
347.967
347.97
347.973
347.978
347.985
347.995
348.008
348.027
348.05
348.075
348.091
348.054
347.62
344.38
344.536
347.632
348.011
348.044
348.033
348.017
348.002
347.99
347.98
347.972
347.966
347.962
347.959
347.958
347.957
347.958
347.96
347.962
347.966
347.971
347.978
347.988
348.002
348.02
348.043
348.068
348.087
348.061
347.682
344.565
344.686
347.692
348.028
348.048
348.032
348.012
347.996
347.983
347.973
347.966
347.961
347.957
347.955
347.953
347.953
347.954
347.955
347.957
347.96
347.965
347.972
347.982
347.995
348.013
348.035
348.061
348.082
348.065
347.727
344.706
344.794
347.734
348.04
348.051
348.031
348.01
347.992
347.979
347.969
347.962
347.957
347.954
347.952
347.951
347.95
347.951
347.952
347.954
347.957
347.961
347.967
347.977
347.989
348.006
348.028
348.054
348.077
348.067
347.758
344.807
344.863
347.76
348.047
348.054
348.031
348.008
347.99
347.976
347.966
347.96
347.955
347.952
347.95
347.949
347.948
347.949
347.95
347.951
347.954
347.958
347.964
347.973
347.985
348.001
348.022
348.048
348.073
348.066
347.776
344.872
344.896
347.772
348.05
348.054
348.03
348.007
347.988
347.975
347.965
347.958
347.954
347.951
347.949
347.948
347.947
347.948
347.948
347.95
347.952
347.956
347.962
347.97
347.981
347.997
348.018
348.043
348.068
348.064
347.783
344.903
344.895
347.77
348.049
348.053
348.03
348.006
347.988
347.974
347.965
347.958
347.954
347.951
347.949
347.948
347.947
347.947
347.948
347.95
347.952
347.956
347.961
347.969
347.98
347.995
348.015
348.04
348.064
348.06
347.78
344.901
344.86
347.756
348.043
348.05
348.028
348.006
347.988
347.975
347.965
347.959
347.954
347.951
347.949
347.948
347.948
347.948
347.949
347.95
347.952
347.956
347.961
347.969
347.979
347.994
348.013
348.037
348.06
348.053
347.764
344.865
344.789
347.727
348.033
348.046
348.026
348.006
347.99
347.977
347.968
347.961
347.956
347.953
347.951
347.949
347.949
347.949
347.95
347.951
347.954
347.958
347.963
347.971
347.981
347.995
348.013
348.035
348.055
348.043
347.736
344.795
344.679
347.682
348.018
348.04
348.025
348.008
347.993
347.981
347.972
347.965
347.96
347.956
347.953
347.951
347.951
347.951
347.952
347.954
347.957
347.961
347.967
347.974
347.985
347.998
348.015
348.034
348.051
348.03
347.693
344.686
344.526
347.618
347.998
348.034
348.026
348.012
347.999
347.987
347.978
347.971
347.965
347.96
347.957
347.955
347.954
347.954
347.955
347.958
347.961
347.966
347.972
347.98
347.99
348.003
348.019
348.035
348.046
348.013
347.633
344.536
344.326
347.534
347.976
348.029
348.029
348.019
348.008
347.997
347.987
347.978
347.971
347.966
347.962
347.96
347.958
347.959
347.96
347.963
347.967
347.973
347.98
347.988
347.999
348.011
348.025
348.039
348.043
347.994
347.553
344.338
344.075
347.429
347.953
348.029
348.037
348.031
348.02
348.009
347.998
347.989
347.981
347.974
347.969
347.966
347.965
347.966
347.968
347.971
347.976
347.982
347.989
347.998
348.009
348.021
348.035
348.045
348.042
347.973
347.452
344.091
343.776
347.299
347.931
348.033
348.049
348.045
348.035
348.023
348.012
348.001
347.992
347.984
347.979
347.976
347.975
347.975
347.978
347.982
347.987
347.994
348.002
348.011
348.021
348.033
348.045
348.054
348.044
347.951
347.326
343.797
343.434
347.137
347.91
348.041
348.064
348.062
348.052
348.04
348.027
348.016
348.005
347.997
347.991
347.988
347.987
347.988
347.991
347.996
348.002
348.009
348.016
348.025
348.034
348.044
348.055
348.061
348.045
347.925
347.164
343.457
343.051
346.927
347.88
348.048
348.08
348.079
348.068
348.055
348.043
348.03
348.019
348.011
348.006
348.003
348.003
348.005
348.008
348.013
348.019
348.026
348.033
348.04
348.046
348.054
348.062
348.066
348.041
347.885
346.947
343.073
342.658
346.628
347.827
348.058
348.1
348.093
348.079
348.066
348.053
348.041
348.031
348.024
348.021
348.02
348.021
348.024
348.027
348.031
348.037
348.042
348.048
348.052
348.055
348.058
348.065
348.069
348.034
347.817
346.636
342.675
342.279
346.176
347.8
348.121
348.116
348.083
348.065
348.053
348.043
348.034
348.028
348.026
348.027
348.029
348.033
348.036
348.039
348.041
348.044
348.047
348.049
348.049
348.046
348.04
348.042
348.064
348.069
347.764
346.17
342.292
342.334
345.773
348.453
348.211
347.994
347.927
347.922
347.928
347.934
347.941
347.951
347.962
347.974
347.985
347.992
347.997
347.997
347.993
347.987
347.979
347.968
347.954
347.933
347.903
347.878
347.917
348.115
348.36
345.738
342.362
335.831
355.25
349.043
347.291
346.832
346.867
346.987
347.102
347.205
347.294
347.369
347.431
347.48
347.514
347.534
347.539
347.528
347.502
347.461
347.405
347.333
347.242
347.128
346.99
346.833
346.748
347.154
348.867
355.036
335.852
428.222
356.787
347.872
343.477
342.594
342.567
342.718
342.922
343.142
343.341
343.512
343.65
343.755
343.826
343.862
343.865
343.834
343.769
343.67
343.537
343.373
343.176
342.953
342.74
342.569
342.562
343.391
347.715
356.537
427.698
446.187
362.523
347.032
338.878
336.672
336.337
336.455
336.678
336.927
337.153
337.336
337.473
337.569
337.627
337.648
337.631
337.578
337.486
337.356
337.185
336.974
336.741
336.516
336.36
336.373
336.943
339.504
348.051
363.903
448.835
332.624
360.97
352.125
346.831
344.187
343.592
343.808
344.203
344.57
344.866
345.084
345.236
345.333
345.383
345.395
345.37
345.311
345.214
345.075
344.891
344.659
344.383
344.083
343.828
343.841
344.727
347.62
353.004
361.894
332.517
337.382
343.979
349.667
349.107
347.891
347.307
347.246
347.395
347.579
347.732
347.84
347.906
347.94
347.95
347.941
347.918
347.882
347.832
347.767
347.686
347.588
347.48
347.386
347.374
347.605
348.345
349.625
350.123
344.185
337.348
336.405
342.275
346.845
348.473
348.586
348.419
348.347
348.381
348.458
348.533
348.589
348.621
348.634
348.633
348.621
348.604
348.581
348.554
348.524
348.49
348.456
348.429
348.426
348.482
348.64
348.858
348.731
347.011
342.309
336.356
336.896
342.843
346.599
348.118
348.593
348.68
348.683
348.698
348.733
348.773
348.804
348.824
348.831
348.829
348.82
348.807
348.792
348.777
348.761
348.747
348.737
348.735
348.748
348.781
348.81
348.727
348.218
346.622
342.768
336.791
337.327
343.767
347.021
348.182
348.602
348.744
348.79
348.811
348.833
348.856
348.875
348.887
348.892
348.891
348.885
348.876
348.866
348.857
348.849
348.842
348.84
348.842
348.847
348.846
348.808
348.65
348.189
346.953
343.608
337.181
337.753
344.49
347.423
348.343
348.661
348.784
348.834
348.857
348.873
348.887
348.899
348.906
348.909
348.908
348.904
348.899
348.892
348.887
348.882
348.88
348.879
348.879
348.875
348.858
348.801
348.655
348.292
347.302
344.3
337.59
338.162
345.021
347.709
348.481
348.728
348.822
348.862
348.88
348.891
348.899
348.905
348.909
348.91
348.909
348.906
348.903
348.899
348.896
348.894
348.893
348.892
348.89
348.883
348.861
348.808
348.687
348.396
347.567
344.836
338.017
338.519
345.411
347.898
348.574
348.779
348.853
348.882
348.894
348.899
348.902
348.904
348.905
348.905
348.904
348.902
348.9
348.897
348.896
348.895
348.895
348.895
348.893
348.885
348.865
348.82
348.721
348.479
347.761
345.25
338.405
338.818
345.696
348.02
348.63
348.811
348.873
348.895
348.902
348.903
348.902
348.901
348.9
348.899
348.897
348.896
348.894
348.893
348.893
348.893
348.894
348.894
348.893
348.887
348.871
348.834
348.75
348.542
347.903
345.568
338.733
339.067
345.903
348.097
348.662
348.829
348.884
348.902
348.905
348.904
348.9
348.897
348.895
348.893
348.891
348.889
348.888
348.888
348.888
348.889
348.891
348.892
348.892
348.888
348.876
348.846
348.774
348.589
348.007
345.809
339.007
339.267
346.054
348.148
348.68
348.837
348.889
348.904
348.906
348.903
348.898
348.894
348.89
348.888
348.886
348.884
348.884
348.884
348.885
348.886
348.888
348.89
348.892
348.89
348.881
348.856
348.792
348.624
348.083
345.99
339.226
339.418
346.163
348.182
348.689
348.84
348.89
348.904
348.905
348.901
348.896
348.891
348.887
348.884
348.882
348.881
348.88
348.881
348.882
348.884
348.886
348.889
348.891
348.891
348.885
348.864
348.806
348.649
348.137
346.12
339.391
339.52
346.234
348.203
348.695
348.841
348.889
348.904
348.904
348.9
348.894
348.889
348.885
348.882
348.88
348.879
348.878
348.879
348.88
348.882
348.885
348.889
348.892
348.893
348.889
348.87
348.817
348.667
348.173
346.206
339.501
339.572
346.271
348.215
348.698
348.842
348.89
348.903
348.904
348.899
348.893
348.888
348.884
348.881
348.879
348.878
348.878
348.878
348.88
348.882
348.885
348.889
348.893
348.896
348.892
348.876
348.825
348.679
348.194
346.252
339.559
339.573
346.274
348.218
348.701
348.844
348.891
348.904
348.904
348.9
348.894
348.888
348.884
348.881
348.879
348.878
348.878
348.879
348.88
348.883
348.886
348.891
348.895
348.899
348.897
348.881
348.831
348.687
348.203
346.26
339.564
339.526
346.243
348.212
348.702
348.846
348.894
348.907
348.906
348.901
348.895
348.89
348.886
348.883
348.881
348.88
348.88
348.88
348.882
348.885
348.888
348.893
348.898
348.902
348.901
348.886
348.837
348.691
348.199
346.231
339.517
339.429
346.179
348.196
348.702
348.849
348.897
348.909
348.909
348.904
348.898
348.892
348.888
348.886
348.884
348.883
348.883
348.884
348.885
348.888
348.891
348.896
348.901
348.906
348.905
348.89
348.841
348.691
348.184
346.166
339.42
339.284
346.079
348.171
348.698
348.85
348.899
348.911
348.911
348.906
348.9
348.896
348.892
348.89
348.889
348.888
348.888
348.888
348.89
348.892
348.895
348.899
348.904
348.908
348.907
348.893
348.842
348.687
348.156
346.064
339.273
339.092
345.939
348.129
348.687
348.846
348.896
348.91
348.91
348.907
348.903
348.9
348.898
348.897
348.896
348.895
348.895
348.895
348.896
348.897
348.899
348.902
348.906
348.909
348.907
348.891
348.837
348.674
348.111
345.919
339.077
338.852
345.744
348.061
348.66
348.831
348.885
348.902
348.906
348.905
348.905
348.904
348.904
348.905
348.905
348.904
348.904
348.904
348.903
348.903
348.903
348.904
348.905
348.905
348.9
348.881
348.823
348.646
348.04
345.718
338.833
338.564
345.47
347.947
348.606
348.798
348.862
348.886
348.896
348.9
348.904
348.908
348.911
348.914
348.915
348.915
348.915
348.914
348.912
348.909
348.907
348.904
348.901
348.897
348.887
348.861
348.792
348.592
347.923
345.439
338.539
338.217
345.087
347.759
348.509
348.741
348.826
348.861
348.878
348.89
348.9
348.91
348.918
348.923
348.926
348.926
348.925
348.923
348.919
348.914
348.907
348.899
348.891
348.881
348.865
348.829
348.74
348.499
347.735
345.052
338.186
337.815
344.555
347.463
348.359
348.662
348.778
348.825
348.849
348.869
348.888
348.906
348.919
348.928
348.932
348.933
348.931
348.927
348.921
348.912
348.9
348.886
348.87
348.855
348.833
348.787
348.669
348.358
347.446
344.519
337.778
337.384
343.817
347.038
348.176
348.584
348.722
348.769
348.796
348.826
348.858
348.885
348.906
348.918
348.923
348.924
348.921
348.916
348.908
348.894
348.875
348.852
348.826
348.804
348.783
348.74
348.602
348.189
347.035
343.788
337.352
336.933
342.857
346.578
348.079
348.546
348.635
348.647
348.676
348.726
348.779
348.822
348.851
348.866
348.872
348.872
348.869
348.862
348.85
348.832
348.803
348.765
348.721
348.684
348.668
348.666
348.582
348.113
346.598
342.849
336.916
336.409
342.24
346.774
348.382
348.494
348.342
348.295
348.355
348.455
348.549
348.618
348.66
348.681
348.689
348.688
348.683
348.673
348.657
348.63
348.586
348.522
348.44
348.358
348.32
348.391
348.559
348.451
346.827
342.261
336.408
337.37
343.888
349.503
348.932
347.734
347.196
347.187
347.379
347.594
347.766
347.885
347.959
347.999
348.017
348.021
348.014
347.997
347.966
347.916
347.836
347.718
347.556
347.364
347.207
347.261
347.842
349.061
349.627
343.95
337.368
332.62
360.607
351.821
346.553
343.989
343.487
343.777
344.217
344.609
344.917
345.141
345.296
345.396
345.453
345.476
345.469
345.431
345.36
345.247
345.082
344.852
344.548
344.171
343.766
343.537
344.117
346.752
352.052
360.869
332.6
445.139
361.971
346.627
338.623
336.554
336.305
336.47
336.716
336.973
337.202
337.385
337.521
337.618
337.68
337.707
337.702
337.664
337.591
337.483
337.336
337.144
336.911
336.657
336.429
336.3
336.612
338.779
346.892
362.337
445.867
446.174
362.859
347.322
338.015
334.398
333.061
332.606
332.498
332.543
332.644
332.76
332.872
332.967
333.037
333.081
333.095
333.081
333.037
332.967
332.873
332.763
332.65
332.569
332.612
332.967
334.149
337.565
346.693
362.144
444.722
331.392
360.334
352.598
346.941
342.91
340.877
340.105
339.974
340.13
340.393
340.678
340.938
341.15
341.302
341.39
341.409
341.36
341.242
341.055
340.806
340.513
340.215
340
340.041
340.696
342.604
346.548
352.182
359.862
331.429
335.443
342.89
349.399
349.148
347.273
345.716
344.91
344.653
344.689
344.853
345.051
345.238
345.393
345.505
345.571
345.588
345.554
345.468
345.33
345.145
344.929
344.725
344.627
344.808
345.539
347.045
348.907
349.184
342.778
335.41
333.374
339.714
345.079
347.694
348.045
347.623
347.216
347.006
346.955
346.994
347.071
347.156
347.234
347.296
347.336
347.349
347.335
347.291
347.22
347.128
347.029
346.955
346.963
347.129
347.502
347.91
347.569
344.99
339.654
333.324
333.205
339.176
343.753
346.578
347.745
348.006
347.968
347.893
347.856
347.858
347.884
347.922
347.962
347.997
348.02
348.03
348.024
348.001
347.964
347.918
347.874
347.846
347.856
347.909
347.935
347.677
346.523
343.721
339.17
333.219
333.302
339.583
343.858
346.402
347.581
348.039
348.183
348.214
348.219
348.225
348.24
348.261
348.284
348.304
348.319
348.325
348.322
348.308
348.286
348.259
348.232
348.209
348.19
348.149
348.001
347.551
346.393
343.879
339.638
333.37
333.469
340.172
344.377
346.609
347.615
348.065
348.261
348.342
348.377
348.397
348.413
348.43
348.446
348.459
348.469
348.473
348.47
348.46
348.444
348.424
348.4
348.372
348.329
348.244
348.052
347.613
346.632
344.439
340.268
333.567
333.691
340.77
344.91
346.876
347.725
348.119
348.311
348.408
348.459
348.488
348.508
348.523
348.536
348.547
348.553
348.556
348.553
348.545
348.532
348.514
348.49
348.457
348.404
348.309
348.125
347.746
346.923
344.995
340.885
333.793
333.942
341.336
345.361
347.114
347.844
348.183
348.358
348.454
348.509
348.542
348.564
348.579
348.591
348.599
348.604
348.606
348.603
348.596
348.585
348.568
348.545
348.511
348.457
348.366
348.203
347.881
347.175
345.451
341.451
334.032
334.184
341.838
345.725
347.311
347.951
348.246
348.402
348.491
348.544
348.578
348.6
348.615
348.625
348.632
348.636
348.637
348.635
348.628
348.618
348.603
348.581
348.549
348.499
348.417
348.272
347.994
347.374
345.809
341.938
334.257
334.397
342.254
346.01
347.467
348.04
348.302
348.441
348.522
348.572
348.604
348.624
348.638
348.648
348.654
348.657
348.658
348.655
348.65
348.641
348.627
348.608
348.578
348.532
348.458
348.329
348.08
347.523
346.079
342.332
334.452
334.571
342.577
346.221
347.584
348.109
348.347
348.474
348.548
348.593
348.622
348.642
348.654
348.663
348.668
348.671
348.671
348.669
348.664
348.656
348.644
348.626
348.6
348.558
348.489
348.371
348.143
347.628
346.273
342.633
334.61
334.702
342.808
346.368
347.667
348.159
348.381
348.498
348.567
348.609
348.636
348.654
348.665
348.673
348.678
348.68
348.68
348.678
348.674
348.667
348.656
348.639
348.614
348.575
348.511
348.4
348.185
347.699
346.406
342.846
334.729
334.789
342.955
346.46
347.719
348.192
348.404
348.515
348.58
348.619
348.645
348.661
348.672
348.679
348.684
348.686
348.686
348.684
348.68
348.673
348.663
348.647
348.624
348.586
348.525
348.417
348.21
347.742
346.486
342.981
334.809
334.835
343.025
346.503
347.744
348.208
348.415
348.523
348.586
348.624
348.649
348.665
348.675
348.682
348.686
348.688
348.688
348.687
348.683
348.676
348.666
348.651
348.628
348.591
348.53
348.424
348.22
347.76
346.521
343.043
334.848
334.833
343.023
346.502
347.743
348.207
348.414
348.523
348.586
348.624
348.649
348.665
348.675
348.682
348.686
348.688
348.688
348.687
348.683
348.676
348.666
348.65
348.627
348.589
348.528
348.421
348.216
347.754
346.515
343.036
334.843
334.785
342.949
346.456
347.717
348.191
348.403
348.515
348.579
348.619
348.645
348.661
348.672
348.679
348.684
348.686
348.686
348.684
348.679
348.672
348.662
348.646
348.621
348.581
348.518
348.407
348.196
347.725
346.466
342.959
334.793
334.694
342.798
346.361
347.662
348.157
348.38
348.498
348.567
348.609
348.636
348.654
348.665
348.673
348.678
348.68
348.68
348.678
348.673
348.666
348.654
348.636
348.609
348.567
348.499
348.383
348.161
347.668
346.369
342.807
334.701
334.558
342.56
346.209
347.576
348.105
348.345
348.472
348.547
348.593
348.622
348.642
348.654
348.663
348.668
348.67
348.67
348.668
348.663
348.654
348.642
348.622
348.593
348.547
348.473
348.346
348.108
347.582
346.216
342.57
334.566
334.378
342.228
345.991
347.455
348.033
348.298
348.439
348.521
348.572
348.603
348.624
348.638
348.647
348.653
348.656
348.656
348.653
348.647
348.638
348.624
348.603
348.571
348.521
348.439
348.298
348.035
347.459
345.998
342.239
334.388
334.158
341.801
345.698
347.294
347.941
348.241
348.399
348.49
348.544
348.577
348.599
348.614
348.624
348.63
348.633
348.633
348.63
348.624
348.614
348.599
348.577
348.543
348.488
348.398
348.24
347.941
347.296
345.704
341.813
334.169
333.906
341.288
345.322
347.092
347.832
348.178
348.355
348.452
348.508
348.541
348.563
348.577
348.588
348.595
348.599
348.599
348.595
348.588
348.577
348.562
348.54
348.506
348.45
348.352
348.175
347.83
347.091
345.325
341.299
333.919
333.648
340.715
344.861
346.85
347.713
348.114
348.309
348.407
348.458
348.487
348.506
348.52
348.531
348.54
348.544
348.544
348.54
348.532
348.52
348.505
348.486
348.456
348.405
348.306
348.11
347.708
346.845
344.86
340.721
333.661
333.422
340.116
344.329
346.585
347.606
348.063
348.261
348.342
348.377
348.395
348.409
348.424
348.437
348.448
348.454
348.454
348.449
348.438
348.425
348.41
348.395
348.375
348.34
348.258
348.059
347.599
346.575
344.319
340.115
333.432
333.259
339.537
343.825
346.388
347.58
348.044
348.188
348.216
348.217
348.22
348.232
348.25
348.269
348.286
348.295
348.296
348.288
348.273
348.253
348.234
348.221
348.217
348.215
348.186
348.041
347.575
346.378
343.809
339.527
333.261
333.178
339.154
343.746
346.587
347.764
348.024
347.979
347.896
347.851
347.847
347.869
347.904
347.939
347.968
347.985
347.986
347.973
347.945
347.91
347.875
347.85
347.851
347.895
347.978
348.023
347.762
346.58
343.728
339.133
333.164
333.371
339.719
345.107
347.743
348.095
347.659
347.232
347.003
346.938
346.969
347.043
347.125
347.2
347.255
347.286
347.288
347.262
347.21
347.137
347.053
346.977
346.941
347.003
347.231
347.659
348.096
347.742
345.096
339.696
333.339
335.434
342.938
349.503
349.256
347.363
345.771
344.926
344.636
344.65
344.803
345
345.188
345.34
345.447
345.504
345.508
345.458
345.357
345.207
345.02
344.82
344.66
344.637
344.921
345.763
347.357
349.255
349.499
342.931
335.415
331.396
360.597
352.799
347.112
343.032
340.939
340.114
339.946
340.081
340.334
340.614
340.873
341.084
341.232
341.309
341.314
341.246
341.107
340.903
340.645
340.362
340.101
339.955
340.108
340.918
343
347.08
352.776
360.55
331.396
446.91
363.19
347.605
338.209
334.5
333.094
332.593
332.461
332.494
332.59
332.705
332.816
332.909
332.976
333.012
333.016
332.988
332.929
332.843
332.737
332.624
332.525
332.483
332.599
333.076
334.451
338.122
347.495
363.084
446.717
439.338
360.029
345.274
336.327
332.691
331.238
330.679
330.493
330.463
330.486
330.521
330.557
330.586
330.604
330.61
330.602
330.582
330.551
330.515
330.48
330.456
330.455
330.515
330.736
331.329
332.817
336.485
345.456
360.218
439.81
330.577
357.342
350.23
344.854
340.796
338.555
337.566
337.264
337.28
337.416
337.577
337.724
337.841
337.919
337.954
337.944
337.891
337.799
337.676
337.536
337.395
337.292
337.315
337.654
338.671
340.928
344.994
350.368
357.51
330.616
334.551
341.467
347.443
347.129
345.134
343.264
342.127
341.641
341.546
341.629
341.77
341.913
342.031
342.111
342.147
342.136
342.081
341.989
341.869
341.737
341.621
341.575
341.708
342.22
343.367
345.235
347.225
347.533
341.529
334.586
331.917
338.143
343.25
345.768
346.059
345.422
344.764
344.389
344.262
344.273
344.34
344.42
344.488
344.536
344.556
344.549
344.515
344.461
344.394
344.328
344.282
344.297
344.448
344.837
345.494
346.123
345.825
343.298
338.185
331.959
331.379
337.075
341.453
344.327
345.666
345.948
345.823
345.66
345.567
345.542
345.557
345.586
345.616
345.637
345.646
345.641
345.624
345.599
345.572
345.552
345.552
345.592
345.696
345.864
345.988
345.704
344.364
341.483
337.101
331.401
331.296
337.09
341.085
343.81
345.341
345.964
346.13
346.135
346.111
346.098
346.101
346.113
346.126
346.136
346.14
346.137
346.128
346.116
346.105
346.099
346.104
346.124
346.154
346.15
345.984
345.362
343.829
341.096
337.091
331.29
331.333
337.429
341.344
343.909
345.318
345.96
346.223
346.317
346.347
346.357
346.365
346.373
346.381
346.388
346.39
346.389
346.383
346.376
346.369
346.363
346.36
346.353
346.325
346.23
345.965
345.321
343.906
341.327
337.404
331.306
331.414
337.823
341.765
344.197
345.429
346.004
346.276
346.403
346.461
346.488
346.504
346.515
346.523
346.528
346.531
346.53
346.526
346.52
346.512
346.503
346.489
346.462
346.404
346.275
345.998
345.417
344.174
341.723
337.776
331.374
331.518
338.197
342.177
344.481
345.566
346.073
346.326
346.456
346.525
346.563
346.585
346.599
346.608
346.614
346.616
346.616
346.612
346.606
346.597
346.584
346.562
346.524
346.452
346.318
346.058
345.542
344.445
342.123
338.141
331.475
331.634
338.538
342.541
344.718
345.691
346.143
346.372
346.497
346.569
346.611
346.636
346.652
346.662
346.667
346.67
346.67
346.667
346.66
346.65
346.634
346.608
346.565
346.49
346.36
346.123
345.662
344.676
342.484
338.485
331.594
331.745
338.839
342.846
344.909
345.797
346.205
346.414
346.531
346.601
346.643
346.669
346.686
346.696
346.702
346.705
346.705
346.702
346.695
346.685
346.668
346.64
346.596
346.523
346.401
346.185
345.769
344.87
342.797
338.794
331.712
331.842
339.088
343.089
345.058
345.882
346.257
346.45
346.559
346.625
346.666
346.692
346.709
346.719
346.725
346.728
346.728
346.725
346.718
346.708
346.691
346.663
346.62
346.552
346.438
346.24
345.859
345.027
343.052
339.055
331.817
331.919
339.28
343.268
345.167
345.947
346.298
346.478
346.581
346.644
346.683
346.708
346.724
346.734
346.74
346.742
346.742
346.739
346.733
346.723
346.706
346.68
346.639
346.574
346.468
346.285
345.929
345.144
343.242
339.255
331.9
331.971
339.409
343.385
345.238
345.989
346.326
346.497
346.596
346.656
346.693
346.718
346.733
346.743
346.748
346.751
346.751
346.748
346.742
346.732
346.716
346.691
346.652
346.59
346.49
346.316
345.977
345.222
343.367
339.391
331.956
331.996
339.474
343.441
345.271
346.009
346.338
346.506
346.603
346.661
346.698
346.722
346.737
346.747
346.752
346.755
346.755
346.752
346.746
346.736
346.721
346.696
346.658
346.599
346.501
346.331
346.001
345.26
343.428
339.461
331.985
331.995
339.472
343.439
345.268
346.007
346.336
346.505
346.601
346.661
346.698
346.722
346.737
346.746
346.752
346.754
346.754
346.752
346.746
346.736
346.721
346.696
346.658
346.598
346.501
346.331
346.001
345.26
343.429
339.462
331.986
331.968
339.403
343.376
345.228
345.981
346.319
346.493
346.592
346.653
346.692
346.717
346.732
346.742
346.748
346.75
346.75
346.747
346.742
346.732
346.716
346.691
346.652
346.59
346.49
346.316
345.977
345.223
343.368
339.394
331.959
331.912
339.268
343.252
345.15
345.933
346.287
346.47
346.576
346.64
346.681
346.706
346.722
346.732
346.738
346.741
346.741
346.738
346.732
346.722
346.705
346.679
346.639
346.574
346.468
346.285
345.93
345.145
343.245
339.259
331.904
331.831
339.07
343.064
345.032
345.862
346.242
346.439
346.552
346.621
346.663
346.69
346.707
346.717
346.723
346.726
346.726
346.723
346.717
346.706
346.689
346.662
346.62
346.551
346.438
346.24
345.859
345.028
343.056
339.06
331.822
331.728
338.811
342.81
344.875
345.771
346.187
346.402
346.524
346.596
346.64
346.666
346.683
346.693
346.699
346.702
346.702
346.699
346.693
346.683
346.666
346.639
346.595
346.522
346.4
346.185
345.769
344.87
342.801
338.8
331.718
331.609
338.501
342.496
344.678
345.663
346.124
346.361
346.491
346.564
346.607
346.632
346.647
346.656
346.662
346.665
346.665
346.662
346.657
346.647
346.632
346.606
346.563
346.489
346.359
346.122
345.66
344.672
342.485
338.488
331.598
331.487
338.154
342.13
344.441
345.54
346.058
346.319
346.453
346.523
346.56
346.58
346.592
346.6
346.605
346.608
346.608
346.606
346.601
346.593
346.58
346.56
346.522
346.452
346.317
346.056
345.536
344.434
342.116
338.138
331.475
331.378
337.778
341.724
344.168
345.414
346
346.278
346.406
346.462
346.485
346.497
346.504
346.511
346.516
346.519
346.519
346.517
346.513
346.506
346.499
346.486
346.461
346.405
346.276
345.997
345.409
344.159
341.709
337.762
331.366
331.296
337.391
341.32
343.9
345.322
345.973
346.238
346.329
346.352
346.354
346.355
346.358
346.363
346.37
346.374
346.374
346.372
346.366
346.361
346.357
346.356
346.353
346.329
346.236
345.969
345.317
343.891
341.306
337.376
331.284
331.266
337.071
341.086
343.831
345.373
346.001
346.164
346.16
346.122
346.095
346.087
346.091
346.101
346.112
346.119
346.12
346.114
346.105
346.095
346.091
346.098
346.123
346.16
346.163
345.999
345.37
343.824
341.076
337.059
331.257
331.37
337.087
341.485
344.38
345.733
346.018
345.884
345.702
345.585
345.537
345.536
345.556
345.583
345.607
345.621
345.622
345.61
345.587
345.561
345.54
345.54
345.586
345.702
345.885
346.02
345.734
344.379
341.481
337.082
331.366
331.947
338.187
343.317
345.864
346.175
345.536
344.856
344.447
344.283
344.264
344.311
344.382
344.45
344.503
344.531
344.531
344.503
344.451
344.382
344.311
344.261
344.28
344.445
344.859
345.543
346.185
345.874
343.323
338.192
331.954
334.586
341.534
347.577
347.302
345.314
343.416
342.233
341.699
341.563
341.616
341.741
341.877
341.998
342.085
342.131
342.13
342.082
341.992
341.869
341.73
341.604
341.552
341.692
342.233
343.425
345.333
347.326
347.601
341.549
334.596
330.572
357.594
350.496
345.127
341.017
338.704
337.647
337.294
337.278
337.396
337.55
337.697
337.818
337.904
337.947
337.945
337.899
337.81
337.686
337.536
337.381
337.264
337.284
337.644
338.713
341.043
345.168
350.541
357.655
330.598
440.186
360.557
345.705
336.634
332.867
331.32
330.707
330.491
330.447
330.465
330.501
330.54
330.575
330.599
330.612
330.61
330.595
330.567
330.53
330.49
330.453
330.436
330.483
330.704
331.328
332.895
336.696
345.794
360.656
440.37
435.446
357.384
343.216
335.195
332.508
331.579
331.242
331.125
331.094
331.079
331.062
331.042
331.021
331.005
330.996
330.995
331.003
331.018
331.037
331.053
331.066
331.072
331.095
331.203
331.531
332.448
335.116
343.123
357.301
435.328
331.294
356.462
349.416
343.991
340.25
338.376
337.621
337.418
337.443
337.534
337.624
337.692
337.734
337.758
337.768
337.767
337.755
337.73
337.684
337.614
337.519
337.421
337.388
337.587
338.343
340.222
343.971
349.41
356.438
331.309
335.377
342.033
347.467
346.852
344.744
342.889
341.782
341.306
341.2
341.256
341.351
341.433
341.488
341.518
341.53
341.529
341.515
341.483
341.426
341.34
341.24
341.179
341.284
341.764
342.88
344.747
346.866
347.491
342.073
335.41