/*--------------------------------*- C++ -*----------------------------------*\
| =========                 |                                                 |
| \\      /  F ield         | OpenFOAM: The Open Source CFD Toolbox           |
|  \\    /   O peration     | Version:  2312                                  |
|   \\  /    A nd           | Website:  www.openfoam.com                      |
|    \\/     M anipulation  |                                                 |
\*---------------------------------------------------------------------------*/
FoamFile
{
    version     2.0;
    format      ascii;
    arch        "LSB;label=32;scalar=64";
    class       volVectorField;
    location    "150";
    object      U;
}
// * * * * * * * * * * * * * * * * * * * * * * * * * * * * * * * * * * * * * //

dimensions      [0 1 -1 0 0 0 0];

internalField   nonuniform List<vector> 
27000
(
(-3.07922e-05 7.68592e-05 0.107959)
(-0.00014141 0.000170372 0.0766209)
(-3.92594e-05 0.000186664 0.0818989)
(-2.20458e-06 0.00016979 0.0834147)
(2.65195e-05 0.000172868 0.0852222)
(3.72782e-05 0.000181849 0.0866408)
(4.05218e-05 0.000191426 0.0877037)
(3.94241e-05 0.000199096 0.0885608)
(3.57865e-05 0.000204762 0.0892852)
(3.04214e-05 0.000208848 0.0898727)
(2.40961e-05 0.000211861 0.0903407)
(1.73139e-05 0.000213981 0.090706)
(1.03955e-05 0.000215333 0.0909761)
(3.52064e-06 0.000215982 0.0911574)
(-3.12458e-06 0.000215965 0.0912551)
(-9.35311e-06 0.000215325 0.0912721)
(-1.49464e-05 0.000214077 0.0912092)
(-1.96432e-05 0.000212256 0.0910646)
(-2.31434e-05 0.000209923 0.0908353)
(-2.50471e-05 0.000207162 0.0905168)
(-2.48577e-05 0.000204191 0.0900958)
(-2.19502e-05 0.00020094 0.0895445)
(-1.56831e-05 0.00019751 0.0888443)
(-5.6821e-06 0.000194094 0.0879954)
(8.62453e-06 0.000191191 0.0869186)
(2.90229e-05 0.000190985 0.0854517)
(6.32794e-05 0.000197522 0.0835419)
(9.6171e-05 0.000221378 0.0818486)
(0.000199047 0.000214682 0.0763419)
(5.42072e-05 9.92417e-05 0.107351)
(0.000245301 -9.56848e-05 0.0628501)
(0.000128852 -7.3595e-05 0.0841907)
(0.000117607 0.000114766 0.0921553)
(8.83318e-05 0.000174213 0.0947428)
(8.3391e-05 0.000209391 0.0959137)
(8.37819e-05 0.0002359 0.096692)
(8.2329e-05 0.000257035 0.0972498)
(7.86172e-05 0.000273219 0.0976697)
(7.22787e-05 0.000285 0.0980008)
(6.33285e-05 0.000293343 0.0982644)
(5.23021e-05 0.000299146 0.0984739)
(3.99682e-05 0.000303056 0.0986396)
(2.69724e-05 0.000305466 0.0987671)
(1.38146e-05 0.000306623 0.0988596)
(8.37085e-07 0.000306676 0.0989193)
(-1.16818e-05 0.000305706 0.0989474)
(-2.35022e-05 0.000303777 0.0989444)
(-3.43844e-05 0.000300895 0.0989095)
(-4.40546e-05 0.000297044 0.0988398)
(-5.21731e-05 0.000292157 0.0987287)
(-5.83401e-05 0.000286092 0.0985624)
(-6.22006e-05 0.000278621 0.0983195)
(-6.36994e-05 0.000269464 0.0979737)
(-6.31818e-05 0.000258393 0.0974873)
(-6.1362e-05 0.000245219 0.0967928)
(-5.92245e-05 0.000228892 0.0957962)
(-6.51199e-05 0.000203757 0.0943409)
(-0.000101072 0.000149493 0.0914789)
(-0.000130338 -5.6195e-05 0.0834652)
(-0.000297025 -0.000134613 0.0626597)
(4.98663e-05 0.000187925 0.0806881)
(0.000104319 0.000162503 0.0903482)
(0.000157437 0.000195625 0.0973277)
(0.000152996 0.000223026 0.0989118)
(0.000138311 0.000247734 0.0992996)
(0.000126082 0.00026871 0.0994476)
(0.000115298 0.000286187 0.0995448)
(0.000104678 0.000300137 0.0996206)
(9.32726e-05 0.000310645 0.099685)
(8.05321e-05 0.000318145 0.0997434)
(6.64534e-05 0.000323195 0.099798)
(5.1344e-05 0.000326318 0.0998493)
(3.56549e-05 0.000327958 0.0998964)
(1.97504e-05 0.00032842 0.099938)
(3.93115e-06 0.000327922 0.0999728)
(-1.15814e-05 0.000326614 0.1)
(-2.66163e-05 0.00032457 0.100019)
(-4.10244e-05 0.000321836 0.100029)
(-5.46687e-05 0.000318373 0.100027)
(-6.74317e-05 0.000314128 0.10001)
(-7.92508e-05 0.000308963 0.0999669)
(-9.02148e-05 0.000302747 0.0998876)
(-0.000100699 0.000295332 0.0997571)
(-0.000111407 0.000286587 0.0995592)
(-0.000123123 0.000276133 0.0992796)
(-0.000137074 0.000262696 0.0989021)
(-0.000154723 0.000243104 0.0982879)
(-0.000165587 0.000211758 0.0966065)
(-0.000125839 0.000158931 0.0898885)
(-9.17103e-05 0.00014385 0.0806919)
(9.68507e-05 0.000115993 0.0839822)
(0.000129244 0.000159251 0.0942155)
(0.000171106 0.00021156 0.0985902)
(0.000170138 0.000229285 0.0996733)
(0.000159066 0.000245169 0.0999374)
(0.000144944 0.000260111 0.0999932)
(0.000130612 0.000273718 0.100001)
(0.000116511 0.000285467 0.0999997)
(0.000102322 0.000294933 0.1)
(8.7589e-05 0.000302056 0.100006)
(7.21016e-05 0.000306982 0.100018)
(5.59572e-05 0.000310045 0.100036)
(3.9339e-05 0.000311587 0.100057)
(2.24902e-05 0.000311923 0.100081)
(5.61252e-06 0.000311299 0.100105)
(-1.11336e-05 0.000309896 0.100128)
(-2.76186e-05 0.000307838 0.100147)
(-4.37537e-05 0.00030519 0.100162)
(-5.94901e-05 0.000301969 0.100168)
(-7.48213e-05 0.000298145 0.100162)
(-8.98164e-05 0.000293679 0.100136)
(-0.000104653 0.000288523 0.100083)
(-0.000119643 0.000282654 0.0999944)
(-0.0001351 0.000275967 0.0998687)
(-0.000151092 0.000268059 0.0997085)
(-0.000166893 0.000257746 0.0995059)
(-0.000179963 0.000242699 0.0991561)
(-0.000184927 0.000217509 0.0981329)
(-0.000153543 0.000143751 0.0940445)
(-0.000133883 6.69643e-05 0.0841056)
(0.000107253 0.000138586 0.0864544)
(0.000155833 0.000172425 0.0960767)
(0.000192105 0.000211261 0.0991817)
(0.000186606 0.000224961 0.0998809)
(0.000173887 0.000236051 0.100074)
(0.000158306 0.000246662 0.100117)
(0.000141874 0.000256856 0.100112)
(0.000125551 0.000266151 0.100094)
(0.000109349 0.000274089 0.100077)
(9.30177e-05 0.000280317 0.100066)
(7.63673e-05 0.000284797 0.100062)
(5.93382e-05 0.000287638 0.100065)
(4.1996e-05 0.00028907 0.100074)
(2.44383e-05 0.000289343 0.100088)
(6.7833e-06 0.000288691 0.100105)
(-1.0869e-05 0.000287311 0.100122)
(-2.84415e-05 0.000285364 0.100138)
(-4.58904e-05 0.000282946 0.10015)
(-6.31955e-05 0.000280139 0.100154)
(-8.0388e-05 0.000276965 0.100147)
(-9.75375e-05 0.000273453 0.100123)
(-0.000114739 0.000269584 0.100079)
(-0.000132089 0.000265309 0.100013)
(-0.000149596 0.000260417 0.0999316)
(-0.000166887 0.000254364 0.099841)
(-0.00018285 0.000246059 0.0997383)
(-0.000195697 0.000233372 0.099561)
(-0.000202501 0.000211307 0.0989907)
(-0.000172859 0.000154238 0.0961281)
(-0.00013106 9.69794e-05 0.0866544)
(0.000126039 0.000130235 0.0882446)
(0.000179814 0.000176484 0.0971434)
(0.000210932 0.000206799 0.0994774)
(0.000202082 0.000215547 0.0999667)
(0.000187144 0.00022279 0.100103)
(0.000169749 0.000230049 0.100136)
(0.00015163 0.000237434 0.100131)
(0.000133581 0.000244563 0.100112)
(0.000115783 0.000250902 0.100091)
(9.80989e-05 0.000256095 0.100075)
(8.03605e-05 0.000259949 0.100064)
(6.24717e-05 0.000262467 0.100061)
(4.43951e-05 0.000263757 0.100064)
(2.61487e-05 0.000263998 0.100071)
(7.76871e-06 0.000263389 0.100082)
(-1.06965e-05 0.000262126 0.100094)
(-2.92152e-05 0.000260376 0.100106)
(-4.77528e-05 0.000258291 0.100113)
(-6.63089e-05 0.00025597 0.100115)
(-8.48891e-05 0.000253497 0.100107)
(-0.000103501 0.000250895 0.100086)
(-0.000122145 0.000248141 0.100053)
(-0.000140778 0.000245083 0.100011)
(-0.00015926 0.00024143 0.0999677)
(-0.000177171 0.000236675 0.099931)
(-0.000193655 0.000229973 0.0998995)
(-0.00020737 0.000219902 0.0998292)
(-0.000215878 0.000203399 0.0994793)
(-0.000188684 0.000159088 0.0973288)
(-0.000139264 9.72633e-05 0.0884688)
(0.000141694 0.000119202 0.0895983)
(0.000200175 0.000169538 0.0978191)
(0.000226697 0.000195524 0.0996438)
(0.000215623 0.000201864 0.100005)
(0.000198923 0.000206536 0.100102)
(0.000180054 0.000211333 0.100125)
(0.00016053 0.000216514 0.100119)
(0.000141121 0.00022177 0.100103)
(0.000122014 0.000226661 0.100084)
(0.000103149 0.0002308 0.100067)
(8.43945e-05 0.000233973 0.100056)
(6.5635e-05 0.000236096 0.100049)
(4.67931e-05 0.000237206 0.100049)
(2.78251e-05 0.000237416 0.100052)
(8.71881e-06 0.000236886 0.100059)
(-1.05258e-05 0.000235794 0.100067)
(-2.98877e-05 0.000234314 0.100075)
(-4.93583e-05 0.000232603 0.100079)
(-6.891e-05 0.000230788 0.100079)
(-8.85147e-05 0.000228953 0.100072)
(-0.000108133 0.000227111 0.100057)
(-0.00012769 0.000225185 0.100038)
(-0.000147091 0.000222979 0.100018)
(-0.000166184 0.000220187 0.100005)
(-0.000184681 0.000216404 0.100006)
(-0.000201948 0.000211071 0.100017)
(-0.000216926 0.000203257 0.099999)
(-0.000227162 0.000190567 0.0997559)
(-0.000203153 0.000154902 0.0980535)
(-0.000147587 9.60181e-05 0.0898109)
(0.000154049 0.000106419 0.0906385)
(0.000216399 0.000156913 0.0982824)
(0.000239314 0.000179373 0.0997514)
(0.000226826 0.000184503 0.100026)
(0.000208959 0.000187712 0.100094)
(0.000189041 0.000190887 0.100107)
(0.000168509 0.000194434 0.1001)
(0.000148061 0.000198194 0.100086)
(0.000127914 0.000201816 0.100069)
(0.000108054 0.00020498 0.100055)
(8.83842e-05 0.000207462 0.100044)
(6.87947e-05 0.000209157 0.100038)
(4.9189e-05 0.000210053 0.100036)
(2.9498e-05 0.000210218 0.100037)
(9.67731e-06 0.000209775 0.100041)
(-1.029e-05 0.000208874 0.100046)
(-3.04087e-05 0.000207682 0.10005)
(-5.06508e-05 0.000206346 0.100053)
(-7.09833e-05 0.000204995 0.100052)
(-9.13491e-05 0.000203691 0.100048)
(-0.000111669 0.000202431 0.100041)
(-0.000131857 0.000201103 0.100033)
(-0.00015182 0.000199499 0.100031)
(-0.000171463 0.000197346 0.10004)
(-0.000190606 0.000194359 0.100063)
(-0.000208804 0.000190187 0.100093)
(-0.000225098 0.00018419 0.100095)
(-0.000236876 0.000174439 0.0999076)
(-0.000215839 0.000146105 0.0985097)
(-0.000155367 9.19451e-05 0.090813)
(0.000163948 9.3149e-05 0.0914575)
(0.000229369 0.000140573 0.09862)
(0.000249366 0.000159897 0.0998323)
(0.000235847 0.000164289 0.100042)
(0.000217176 0.000166676 0.100086)
(0.000196577 0.000168828 0.100091)
(0.000175361 0.000171231 0.100082)
(0.000154178 0.000173844 0.100068)
(0.000133249 0.00017643 0.100055)
(0.000112592 0.00017874 0.100043)
(9.21433e-05 0.000180586 0.100034)
(7.1807e-05 0.000181859 0.100029)
(5.14906e-05 0.000182529 0.100026)
(3.11165e-05 0.000182635 0.100026)
(1.06314e-05 0.000182267 0.100028)
(-9.9943e-06 0.00018155 0.100031)
(-3.0757e-05 0.000180624 0.100034)
(-5.16365e-05 0.000179626 0.100036)
(-7.25798e-05 0.000178655 0.100036)
(-9.35172e-05 0.000177768 0.100034)
(-0.000114368 0.000176931 0.100033)
(-0.000135053 0.000176032 0.100035)
(-0.000155518 0.000174879 0.100044)
(-0.00017572 0.000173263 0.100064)
(-0.000195576 0.000170989 0.100097)
(-0.000214724 0.00016786 0.100133)
(-0.000232255 0.000163397 0.100142)
(-0.000245437 0.00015607 0.0999895)
(-0.000227025 0.000133738 0.0988121)
(-0.000162986 8.5521e-05 0.0915876)
(0.00017176 7.97364e-05 0.092101)
(0.000239746 0.000121892 0.0988747)
(0.000257366 0.000138156 0.0998991)
(0.000243011 0.000141942 0.100058)
(0.000223733 0.00014382 0.100083)
(0.000202657 0.000145319 0.100079)
(0.000181006 0.000146937 0.100068)
(0.000159329 0.000148702 0.100055)
(0.000137838 0.000150473 0.100043)
(0.000116575 0.000152077 0.100033)
(9.54957e-05 0.000153368 0.100026)
(7.45256e-05 0.000154256 0.100022)
(5.35844e-05 0.000154707 0.10002)
(3.26013e-05 0.000154743 0.10002)
(1.15254e-05 0.000154431 0.100021)
(-9.6673e-06 0.00015387 0.100022)
(-3.09782e-05 0.000153173 0.100024)
(-5.23743e-05 0.000152449 0.100026)
(-7.38037e-05 0.000151783 0.100026)
(-9.51971e-05 0.000151205 0.100027)
(-0.000116485 0.000150682 0.10003)
(-0.000137614 0.000150108 0.100038)
(-0.000158564 0.000149333 0.100053)
(-0.000179343 0.000148204 0.100078)
(-0.000199897 0.000146606 0.100113)
(-0.000219949 0.000144424 0.100149)
(-0.000238584 0.000141294 0.10016)
(-0.00025297 0.000135993 0.100035)
(-0.000236793 0.000118681 0.0990233)
(-0.000169948 7.70458e-05 0.0921943)
(0.000177915 6.62649e-05 0.0925942)
(0.000247996 0.00010178 0.0990664)
(0.000263659 0.000114948 0.0999541)
(0.000248585 0.000118094 0.100075)
(0.000228821 0.000119558 0.100085)
(0.000207418 0.000120612 0.100073)
(0.000185479 0.000121674 0.100058)
(0.000163476 0.00012281 0.100045)
(0.000141598 0.00012395 0.100034)
(0.000119888 0.000124983 0.100026)
(9.83197e-05 0.000125809 0.100021)
(7.68372e-05 0.000126359 0.100018)
(5.53751e-05 0.000126609 0.100016)
(3.38769e-05 0.00012657 0.100016)
(1.23018e-05 0.000126293 0.100016)
(-9.37001e-06 0.000125854 0.100017)
(-3.11293e-05 0.00012534 0.100019)
(-5.29481e-05 0.000124838 0.10002)
(-7.47747e-05 0.000124409 0.100021)
(-9.65507e-05 0.000124073 0.100024)
(-0.000118223 0.000123799 0.100029)
(-0.000139766 0.000123504 0.100039)
(-0.000161189 0.000123077 0.100056)
(-0.000182513 0.000122418 0.100082)
(-0.000203716 0.00012146 0.100116)
(-0.000224541 0.000120129 0.10015)
(-0.000244088 0.00011817 0.100164)
(-0.000259473 0.000114593 0.10006)
(-0.000245105 0.000101575 0.099174)
(-0.000176015 6.69462e-05 0.0926587)
(0.000182729 5.26417e-05 0.09296)
(0.000254438 8.0759e-05 0.0992061)
(0.000268525 9.08231e-05 0.099997)
(0.000252831 9.32368e-05 0.100091)
(0.000232664 9.42989e-05 0.100088)
(0.00021101 9.49829e-05 0.100071)
(0.000188878 9.56131e-05 0.100053)
(0.000166662 9.6266e-05 0.100039)
(0.000144519 9.691e-05 0.100029)
(0.000122489 9.7483e-05 0.100022)
(0.000100555 9.79218e-05 0.100018)
(7.86748e-05 9.81836e-05 0.100015)
(5.68001e-05 9.82502e-05 0.100014)
(3.48876e-05 9.81356e-05 0.100014)
(1.29087e-05 9.78758e-05 0.100014)
(-9.14651e-06 9.75293e-05 0.100015)
(-3.12696e-05 9.71631e-05 0.100016)
(-5.34289e-05 9.68396e-05 0.100017)
(-7.55827e-05 9.66063e-05 0.100019)
(-9.76846e-05 9.64756e-05 0.100022)
(-0.000119701 9.64251e-05 0.100028)
(-0.000141624 9.63938e-05 0.100039)
(-0.000163475 9.63104e-05 0.100056)
(-0.000185288 9.61082e-05 0.10008)
(-0.000207037 9.575e-05 0.100112)
(-0.000228485 9.5191e-05 0.100145)
(-0.000248748 9.42392e-05 0.100161)
(-0.000264912 9.21369e-05 0.100075)
(-0.000251947 8.2875e-05 0.0992803)
(-0.000181087 5.55286e-05 0.0930034)
(0.000186359 3.87734e-05 0.0932175)
(0.000259251 5.91159e-05 0.0993021)
(0.000272146 6.61062e-05 0.100028)
(0.00025595 6.77108e-05 0.100103)
(0.000235454 6.83428e-05 0.100092)
(0.000213603 6.8678e-05 0.10007)
(0.000191331 6.89448e-05 0.10005)
(0.000168969 6.92013e-05 0.100036)
(0.000146643 6.94425e-05 0.100026)
(0.000124387 6.96361e-05 0.100019)
(0.000102189 6.97497e-05 0.100016)
(8.00145e-05 6.97608e-05 0.100014)
(5.78298e-05 6.96646e-05 0.100013)
(3.56042e-05 6.94737e-05 0.100013)
(1.33184e-05 6.92193e-05 0.100013)
(-9.03104e-06 6.89447e-05 0.100013)
(-3.14315e-05 6.86992e-05 0.100014)
(-5.38576e-05 6.85311e-05 0.100015)
(-7.62739e-05 6.84718e-05 0.100017)
(-9.86475e-05 6.85351e-05 0.100021)
(-0.000120958 6.87029e-05 0.100027)
(-0.000143208 6.89403e-05 0.100037)
(-0.000165427 6.91963e-05 0.100053)
(-0.00018764 6.94336e-05 0.100076)
(-0.000209821 6.96267e-05 0.100105)
(-0.000231737 6.97463e-05 0.100137)
(-0.000252524 6.96603e-05 0.100155)
(-0.00026926 6.88282e-05 0.100083)
(-0.000257309 6.29344e-05 0.0993519)
(-0.000185107 4.3077e-05 0.0932465)
(0.000188852 2.46472e-05 0.0933812)
(0.000262527 3.70267e-05 0.0993614)
(0.000274628 4.10052e-05 0.100046)
(0.000258073 4.17612e-05 0.100111)
(0.000237338 4.19368e-05 0.100095)
(0.000215338 4.19264e-05 0.10007)
(0.000192958 4.18582e-05 0.100049)
(0.000170488 4.17703e-05 0.100034)
(0.000148034 4.16648e-05 0.100024)
(0.000125621 4.15323e-05 0.100018)
(0.000103237 4.13627e-05 0.100015)
(8.086e-05 4.11517e-05 0.100013)
(5.8461e-05 4.09054e-05 0.100012)
(3.60185e-05 4.06401e-05 0.100012)
(1.35211e-05 4.03825e-05 0.100012)
(-9.03194e-06 4.01663e-05 0.100013)
(-3.16281e-05 4.00287e-05 0.100013)
(-5.42451e-05 4.00028e-05 0.100014)
(-7.68566e-05 4.01146e-05 0.100016)
(-9.94392e-05 4.03721e-05 0.100019)
(-0.000121982 4.07683e-05 0.100025)
(-0.000144494 4.12781e-05 0.100034)
(-0.000167 4.18723e-05 0.100049)
(-0.00018952 4.25234e-05 0.10007)
(-0.000212015 4.3214e-05 0.100098)
(-0.000234256 4.39263e-05 0.100129)
(-0.000255387 4.45814e-05 0.100148)
(-0.000272493 4.48578e-05 0.100085)
(-0.000261183 4.2063e-05 0.0993949)
(-0.000188034 2.98462e-05 0.0934008)
(0.000190215 1.03199e-05 0.0934601)
(0.000264311 1.46395e-05 0.0993887)
(0.000276028 1.56658e-05 0.100055)
(0.000259281 1.5569e-05 0.100114)
(0.000238408 1.52825e-05 0.100096)
(0.000216309 1.49285e-05 0.10007)
(0.000193846 1.45427e-05 0.100048)
(0.000171292 1.41361e-05 0.100033)
(0.000148745 1.37151e-05 0.100023)
(0.000126227 1.32852e-05 0.100017)
(0.000103728 1.28555e-05 0.100014)
(8.12275e-05 1.24373e-05 0.100012)
(5.87031e-05 1.20473e-05 0.100012)
(3.61375e-05 1.1707e-05 0.100012)
(1.35209e-05 1.14409e-05 0.100012)
(-9.14555e-06 1.12761e-05 0.100012)
(-3.18524e-05 1.12401e-05 0.100013)
(-5.45822e-05 1.13565e-05 0.100013)
(-7.73151e-05 1.16426e-05 0.100015)
(-0.000100036 1.21055e-05 0.100018)
(-0.000122739 1.274e-05 0.100023)
(-0.000145436 1.35306e-05 0.100032)
(-0.000168145 1.44553e-05 0.100045)
(-0.000190876 1.54927e-05 0.100065)
(-0.000213577 1.66288e-05 0.100091)
(-0.000236011 1.7854e-05 0.100121)
(-0.000257325 1.915e-05 0.100141)
(-0.000274608 2.04108e-05 0.100082)
(-0.00026357 2.05486e-05 0.0994122)
(-0.000189842 1.60826e-05 0.0934742)
(0.000190452 -4.13294e-06 0.0934587)
(0.000264629 -7.90356e-06 0.0993864)
(0.000276372 -9.78652e-06 0.100052)
(0.000259612 -1.07139e-05 0.100112)
(0.000238707 -1.14469e-05 0.100094)
(0.00021656 -1.21302e-05 0.100069)
(0.000194038 -1.28207e-05 0.100047)
(0.000171421 -1.3533e-05 0.100032)
(0.00014881 -1.42594e-05 0.100022)
(0.000126232 -1.49781e-05 0.100017)
(0.00010368 -1.56638e-05 0.100014)
(8.11328e-05 -1.62876e-05 0.100012)
(5.85697e-05 -1.68227e-05 0.100012)
(3.59724e-05 -1.7242e-05 0.100011)
(1.33303e-05 -1.7521e-05 0.100011)
(-9.35912e-06 -1.76368e-05 0.100012)
(-3.20894e-05 -1.75709e-05 0.100012)
(-5.48488e-05 -1.73072e-05 0.100013)
(-7.76237e-05 -1.68362e-05 0.100014)
(-0.000100404 -1.61549e-05 0.100017)
(-0.000123189 -1.52685e-05 0.100022)
(-0.000145988 -1.41912e-05 0.100029)
(-0.000168815 -1.29431e-05 0.100042)
(-0.000191667 -1.15457e-05 0.10006)
(-0.000214475 -1.00139e-05 0.100085)
(-0.000236985 -8.34357e-06 0.100114)
(-0.000258331 -6.49057e-06 0.100133)
(-0.000275601 -4.33308e-06 0.100073)
(-0.000264458 -1.35127e-06 0.0994046)
(-0.000190502 1.99673e-06 0.09347)
(0.000189555 -1.86491e-05 0.0933766)
(0.000263478 -3.04659e-05 0.0993542)
(0.00027566 -3.52285e-05 0.100039)
(0.000259064 -3.69417e-05 0.100105)
(0.000238231 -3.80836e-05 0.10009)
(0.000216086 -3.90703e-05 0.100066)
(0.000193529 -4.00524e-05 0.100046)
(0.000170869 -4.10699e-05 0.100032)
(0.000148228 -4.21095e-05 0.100023)
(0.00012564 -4.31299e-05 0.100017)
(0.0001031 -4.4084e-05 0.100014)
(8.05857e-05 -4.49259e-05 0.100012)
(5.80721e-05 -4.56158e-05 0.100011)
(3.55367e-05 -4.61212e-05 0.100011)
(1.29633e-05 -4.64164e-05 0.100011)
(-9.65527e-06 -4.64836e-05 0.100011)
(-3.23192e-05 -4.63106e-05 0.100012)
(-5.50212e-05 -4.589e-05 0.100012)
(-7.77528e-05 -4.52204e-05 0.100014)
(-0.000100509 -4.43039e-05 0.100016)
(-0.00012329 -4.3151e-05 0.100021)
(-0.000146106 -4.17782e-05 0.100028)
(-0.000168966 -4.02106e-05 0.10004)
(-0.000191852 -3.84752e-05 0.100057)
(-0.000214676 -3.65897e-05 0.10008)
(-0.000237154 -3.45345e-05 0.100107)
(-0.000258393 -3.21933e-05 0.100123)
(-0.000275464 -2.92068e-05 0.100058)
(-0.000263831 -2.34113e-05 0.099371)
(-0.000189999 -1.22466e-05 0.0933874)
(0.000187506 -3.31769e-05 0.0932093)
(0.000260818 -5.29162e-05 0.0992893)
(0.000273859 -6.05356e-05 0.100015)
(0.000257592 -6.29593e-05 0.100092)
(0.000236928 -6.44498e-05 0.100084)
(0.000214832 -6.57051e-05 0.100064)
(0.000192268 -6.69718e-05 0.100046)
(0.000169596 -6.83111e-05 0.100033)
(0.00014697 -6.96934e-05 0.100024)
(0.000124434 -7.10503e-05 0.100018)
(0.000101983 -7.2304e-05 0.100014)
(7.95903e-05 -7.33889e-05 0.100012)
(5.72213e-05 -7.42509e-05 0.100011)
(3.48451e-05 -7.48519e-05 0.100011)
(1.24379e-05 -7.51667e-05 0.100011)
(-1.00155e-05 -7.51818e-05 0.100011)
(-3.25194e-05 -7.48929e-05 0.100011)
(-5.50733e-05 -7.43023e-05 0.100012)
(-7.7672e-05 -7.34156e-05 0.100014)
(-0.000100313 -7.22446e-05 0.100016)
(-0.000123001 -7.08046e-05 0.100021)
(-0.000145743 -6.91215e-05 0.100028)
(-0.000168546 -6.72295e-05 0.100039)
(-0.000191381 -6.51678e-05 0.100055)
(-0.000214136 -6.29603e-05 0.100076)
(-0.000236483 -6.05739e-05 0.1001)
(-0.000257483 -5.78088e-05 0.100111)
(-0.000274177 -5.4054e-05 0.100035)
(-0.000261654 -4.54285e-05 0.099308)
(-0.000188316 -2.64978e-05 0.0932216)
(0.00018427 -4.77167e-05 0.092947)
(0.000256595 -7.51333e-05 0.0991863)
(0.00027091 -8.55634e-05 0.0999783)
(0.000255111 -8.85766e-05 0.100075)
(0.000234696 -9.03353e-05 0.100077)
(0.000212694 -9.18282e-05 0.100062)
(0.000190159 -9.33929e-05 0.100048)
(0.000167528 -9.50994e-05 0.100036)
(0.000144985 -9.68846e-05 0.100027)
(0.000122587 -9.86369e-05 0.100021)
(0.000100323 -0.000100242 0.100016)
(7.81537e-05 -0.000101606 0.100013)
(5.60328e-05 -0.000102663 0.100011)
(3.39175e-05 -0.000103371 0.10001)
(1.17751e-05 -0.000103706 0.10001)
(-1.04158e-05 -0.000103663 0.10001)
(-3.26669e-05 -0.000103246 0.100011)
(-5.49784e-05 -0.000102467 0.100012)
(-7.73496e-05 -0.000101342 0.100014)
(-9.97796e-05 -9.98887e-05 0.100017)
(-0.000122274 -9.81336e-05 0.100022)
(-0.000144844 -9.61117e-05 0.100029)
(-0.000167492 -9.38736e-05 0.10004)
(-0.000190184 -9.14767e-05 0.100055)
(-0.000212782 -8.89628e-05 0.100074)
(-0.000234906 -8.62853e-05 0.100093)
(-0.000255546 -8.31636e-05 0.100096)
(-0.000271703 -7.87159e-05 0.100002)
(-0.000257889 -6.72285e-05 0.0992101)
(-0.00018544 -4.06779e-05 0.0929628)
(0.000179751 -6.2381e-05 0.0925753)
(0.000250696 -9.69793e-05 0.0990384)
(0.000266696 -0.000110099 0.0999289)
(0.000251473 -0.000113527 0.100056)
(0.000231372 -0.000115474 0.100071)
(0.000209514 -0.000117202 0.100064)
(0.000187072 -0.000119124 0.100053)
(0.000164567 -0.00012129 0.100043)
(0.000142217 -0.000123579 0.100033)
(0.000120076 -0.000125816 0.100025)
(9.81213e-05 -0.000127841 0.100019)
(7.62948e-05 -0.00012953 0.100015)
(5.45337e-05 -0.000130809 0.100012)
(3.27843e-05 -0.000131632 0.100011)
(1.10046e-05 -0.000131988 0.10001)
(-1.08312e-05 -0.000131877 0.10001)
(-3.27349e-05 -0.000131317 0.100011)
(-5.47103e-05 -0.000130328 0.100013)
(-7.67547e-05 -0.000128936 0.100015)
(-9.88692e-05 -0.000127166 0.100019)
(-0.00012106 -0.000125051 0.100025)
(-0.000143341 -0.000122643 0.100032)
(-0.00016572 -0.000120008 0.100043)
(-0.000188161 -0.000117235 0.100058)
(-0.000210501 -0.000114394 0.100074)
(-0.000232303 -0.000111444 0.100088)
(-0.000252473 -0.000108022 0.10008)
(-0.000267955 -0.000102989 0.0999589)
(-0.000252449 -8.86346e-05 0.0990703)
(-0.000181306 -5.48186e-05 0.0925965)
(0.000173701 -7.74094e-05 0.0920748)
(0.000242898 -0.000118194 0.0988378)
(0.000260994 -0.000133784 0.0998677)
(0.000246438 -0.000137429 0.100036)
(0.000226719 -0.000139531 0.10007)
(0.000205089 -0.000141557 0.100072)
(0.000182854 -0.000143976 0.100065)
(0.000160619 -0.000146763 0.100055)
(0.000138621 -0.000149707 0.100044)
(0.000116901 -0.000152551 0.100033)
(9.54063e-05 -0.000155077 0.100025)
(7.40564e-05 -0.000157143 0.100018)
(5.27728e-05 -0.000158664 0.100014)
(3.14896e-05 -0.00015961 0.100012)
(1.01636e-05 -0.000159978 0.100011)
(-1.12297e-05 -0.00015979 0.100012)
(-3.27006e-05 -0.00015907 0.100013)
(-5.42461e-05 -0.000157851 0.100015)
(-7.58626e-05 -0.000156159 0.100019)
(-9.75469e-05 -0.000154027 0.100024)
(-0.000119309 -0.000151494 0.10003)
(-0.000141167 -0.000148618 0.100039)
(-0.000163134 -0.000145497 0.10005)
(-0.000185181 -0.000142255 0.100064)
(-0.000207135 -0.00013901 0.100077)
(-0.000228493 -0.000135757 0.100084)
(-0.000248072 -0.00013206 0.100062)
(-0.000262743 -0.000126555 0.0999047)
(-0.000245125 -0.000109383 0.0988803)
(-0.000175711 -6.90597e-05 0.0921038)
(0.000165629 -9.30904e-05 0.0914225)
(0.000232763 -0.000138254 0.0985746)
(0.000253439 -0.000155997 0.0997974)
(0.00023966 -0.000159714 0.10002)
(0.000220448 -0.00016204 0.100076)
(0.000199211 -0.0001646 0.100089)
(0.000177373 -0.000167776 0.100085)
(0.000155631 -0.000171444 0.100073)
(0.00013421 -0.000175249 0.100059)
(0.000113117 -0.000178845 0.100045)
(9.22568e-05 -0.000181964 0.100033)
(7.15255e-05 -0.000184446 0.100024)
(5.08271e-05 -0.000186223 0.100018)
(3.0098e-05 -0.000187284 0.100015)
(9.29974e-06 -0.000187657 0.100014)
(-1.15832e-05 -0.000187377 0.100015)
(-3.2545e-05 -0.000186487 0.100017)
(-5.35766e-05 -0.000185019 0.10002)
(-7.46614e-05 -0.000183 0.100025)
(-9.57961e-05 -0.000180455 0.100031)
(-0.000116986 -0.000177422 0.100039)
(-0.000138255 -0.00017397 0.100049)
(-0.000159635 -0.000170216 0.10006)
(-0.000181108 -0.000166335 0.100073)
(-0.0002025 -0.000162517 0.100084)
(-0.000223235 -0.000158806 0.100084)
(-0.000242056 -0.000154783 0.100044)
(-0.000255751 -0.000148887 0.0998397)
(-0.000235529 -0.000128975 0.0986293)
(-0.000168249 -8.35618e-05 0.0914619)
(0.000154784 -0.00010953 0.0905939)
(0.000219593 -0.000156184 0.0982317)
(0.000243507 -0.000175808 0.0997183)
(0.000230742 -0.000179645 0.100011)
(0.000212262 -0.00018254 0.100093)
(0.000191691 -0.000186067 0.100115)
(0.000170575 -0.00019044 0.100112)
(0.000149644 -0.000195335 0.100096)
(0.000129098 -0.000200257 0.100077)
(0.00010887 -0.000204754 0.100058)
(8.88299e-05 -0.000208534 0.100042)
(6.88415e-05 -0.00021145 0.100031)
(4.88141e-05 -0.000213471 0.100024)
(2.86935e-05 -0.000214628 0.10002)
(8.46405e-06 -0.000214985 0.100019)
(-1.18639e-05 -0.000214607 0.100021)
(-3.22682e-05 -0.000213543 0.100024)
(-5.27141e-05 -0.000211824 0.100028)
(-7.3175e-05 -0.000209461 0.100034)
(-9.36309e-05 -0.000206461 0.100042)
(-0.00011409 -0.000202844 0.100051)
(-0.000134581 -0.000198676 0.100062)
(-0.000155151 -0.00019409 0.100074)
(-0.000175811 -0.000189311 0.100086)
(-0.000196391 -0.00018461 0.100093)
(-0.000216267 -0.000180132 0.100085)
(-0.0002341 -0.000175531 0.100025)
(-0.000246552 -0.000169175 0.0997598)
(-0.00022309 -0.000146525 0.0982975)
(-0.000158373 -9.82929e-05 0.090647)
(0.000140371 -0.000126377 0.0895461)
(0.000202368 -0.000170443 0.0977699)
(0.000230456 -0.000192005 0.0996217)
(0.000219204 -0.000196414 0.100007)
(0.000201939 -0.000200625 0.100118)
(0.000182511 -0.000205847 0.100148)
(0.000162568 -0.000212004 0.100142)
(0.000142865 -0.000218547 0.100121)
(0.000123524 -0.000224828 0.100095)
(0.000104418 -0.000230338 0.100071)
(8.5353e-05 -0.0002348 0.100052)
(6.61962e-05 -0.00023812 0.100039)
(4.68727e-05 -0.000240337 0.100031)
(2.73698e-05 -0.000241549 0.100028)
(7.70926e-06 -0.000241869 0.100029)
(-1.20633e-05 -0.000241391 0.100031)
(-3.18879e-05 -0.000240171 0.100035)
(-5.17068e-05 -0.000238224 0.10004)
(-7.14655e-05 -0.000235533 0.100047)
(-9.11287e-05 -0.000232062 0.100056)
(-0.000110688 -0.000227798 0.100066)
(-0.000130184 -0.000222773 0.100077)
(-0.000149685 -0.000217121 0.100089)
(-0.000169235 -0.0002111 0.100099)
(-0.000188677 -0.000205068 0.100102)
(-0.000207334 -0.000199271 0.100082)
(-0.00022377 -0.000193522 0.0999955)
(-0.000234534 -0.000186313 0.0996494)
(-0.000207018 -0.000160627 0.0978393)
(-0.000145594 -0.000112923 0.0896126)
(0.000121263 -0.000142068 0.088192)
(0.000179893 -0.000178802 0.0971076)
(0.000213505 -0.000202923 0.0994794)
(0.000204831 -0.000209193 0.0999946)
(0.000189563 -0.000216017 0.100143)
(0.00017191 -0.000223945 0.100177)
(0.000153681 -0.00023257 0.100166)
(0.000135635 -0.000241169 0.100137)
(0.000117845 -0.000248983 0.100105)
(0.000100064 -0.000255535 0.100077)
(8.20801e-05 -0.000260612 0.100057)
(6.37724e-05 -0.000264248 0.100045)
(4.51291e-05 -0.000266577 0.100039)
(2.61984e-05 -0.000267788 0.100038)
(7.06233e-06 -0.000268052 0.100041)
(-1.21827e-05 -0.000267485 0.100045)
(-3.14436e-05 -0.00026615 0.100049)
(-5.06244e-05 -0.000264033 0.100055)
(-6.9635e-05 -0.000261074 0.100062)
(-8.84074e-05 -0.000257177 0.10007)
(-0.000106914 -0.00025225 0.10008)
(-0.000125182 -0.00024627 0.10009)
(-0.00014332 -0.000239323 0.1001)
(-0.000161431 -0.000231678 0.100107)
(-0.000179362 -0.000223724 0.100103)
(-0.000196356 -0.000215811 0.100067)
(-0.000210797 -0.000207848 0.0999397)
(-0.000218972 -0.000198668 0.0994711)
(-0.000186307 -0.000169221 0.0971631)
(-0.000128978 -0.000126117 0.088264)
(9.7811e-05 -0.00015456 0.0864104)
(0.000152664 -0.000175607 0.096072)
(0.00019277 -0.00020655 0.099224)
(0.000188186 -0.00021751 0.0999464)
(0.000175688 -0.000228473 0.100143)
(0.000160339 -0.000240177 0.100177)
(0.000144263 -0.00025195 0.100156)
(0.0001283 -0.000262898 0.100122)
(0.000112342 -0.000272322 0.100088)
(9.60474e-05 -0.000279819 0.100063)
(7.91636e-05 -0.000285381 0.100048)
(6.16555e-05 -0.000289185 0.100041)
(4.36167e-05 -0.000291531 0.100041)
(2.51827e-05 -0.000292696 0.100046)
(6.51814e-06 -0.000292891 0.100051)
(-1.2241e-05 -0.000292272 0.100057)
(-3.0959e-05 -0.000290872 0.100062)
(-4.95033e-05 -0.00028867 0.100066)
(-6.77467e-05 -0.000285542 0.100071)
(-8.55592e-05 -0.000281313 0.100076)
(-0.000102859 -0.000275791 0.100082)
(-0.000119654 -0.000268819 0.100089)
(-0.000136092 -0.000260403 0.100093)
(-0.000152377 -0.000250749 0.100093)
(-0.000168471 -0.000240263 0.100079)
(-0.0001835 -0.000229311 0.100022)
(-0.000195451 -0.0002179 0.099829)
(-0.00019985 -0.000204236 0.0991498)
(-0.000161442 -0.000166826 0.0960836)
(-0.000108797 -0.000136708 0.0864757)
(8.17038e-05 -0.000135487 0.0839579)
(0.000122681 -0.000162157 0.0942609)
(0.00016992 -0.000205566 0.0986906)
(0.000171017 -0.000220592 0.099784)
(0.000160981 -0.000237008 0.100033)
(0.000147675 -0.000253648 0.100064)
(0.000134141 -0.000269196 0.100045)
(0.00012071 -0.000282693 0.100021)
(0.000106907 -0.000293567 0.100002)
(9.22034e-05 -0.000301754 0.0999935)
(7.64091e-05 -0.000307534 0.0999942)
(5.96395e-05 -0.000311349 0.100002)
(4.21364e-05 -0.000313629 0.100015)
(2.41879e-05 -0.000314722 0.100029)
(6.00192e-06 -0.000314885 0.10004)
(-1.22275e-05 -0.000314238 0.100048)
(-3.03461e-05 -0.000312842 0.100051)
(-4.82058e-05 -0.000310626 0.10005)
(-6.56091e-05 -0.000307441 0.100047)
(-8.236e-05 -0.000303047 0.100043)
(-9.82661e-05 -0.000297101 0.100038)
(-0.000113248 -0.000289296 0.100031)
(-0.000127474 -0.000279389 0.10002)
(-0.000141358 -0.000267413 0.100001)
(-0.000155215 -0.00025369 0.0999649)
(-0.00016858 -0.000238664 0.09988)
(-0.00017863 -0.000222838 0.0995966)
(-0.000178028 -0.00020567 0.0985204)
(-0.000133575 -0.000155165 0.0941934)
(-9.69749e-05 -0.000115861 0.0839983)
(3.32296e-05 -0.00020529 0.0806846)