/*--------------------------------*- C++ -*----------------------------------*\
| =========                 |                                                 |
| \\      /  F ield         | OpenFOAM: The Open Source CFD Toolbox           |
|  \\    /   O peration     | Version:  2312                                  |
|   \\  /    A nd           | Website:  www.openfoam.com                      |
|    \\/     M anipulation  |                                                 |
\*---------------------------------------------------------------------------*/
FoamFile
{
    version     2.0;
    format      ascii;
    arch        "LSB;label=32;scalar=64";
    class       volScalarField;
    location    "50";
    object      alphat;
}
// * * * * * * * * * * * * * * * * * * * * * * * * * * * * * * * * * * * * * //

dimensions      [1 -1 -1 0 0 0 0];

internalField   nonuniform List<scalar> 
27000
(
0.00395909
0.00671851
0.00937143
0.011743
0.0140512
0.0162078
0.0181662
0.019822
0.0212434
0.022471
0.0234671
0.0242576
0.0248478
0.0252399
0.0254356
0.0254356
0.02524
0.0248478
0.0242577
0.0234672
0.0224711
0.0212435
0.0198221
0.0181663
0.0162078
0.0140512
0.0117426
0.00937083
0.00671925
0.00395866
0.00575523
0.00126851
0.00510565
0.00900313
0.0130792
0.0169818
0.0206939
0.0241443
0.0272759
0.0300997
0.0325576
0.0345971
0.0361718
0.0372427
0.037785
0.0377858
0.0372449
0.0361761
0.0346056
0.0325687
0.0301141
0.0272925
0.0241614
0.0207032
0.0169865
0.0130729
0.00899358
0.00510052
0.00126909
0.00575387
0.0092258
0.00709367
0.0144981
0.0259111
0.0364327
0.0458508
0.0545463
0.0626221
0.0699909
0.0765708
0.0822462
0.0869111
0.0904778
0.0928852
0.0940978
0.0940992
0.0928901
0.0904878
0.0869282
0.0822702
0.0766016
0.0700272
0.0626567
0.0545679
0.0458558
0.0364077
0.0258725
0.0144808
0.00708756
0.00922575
0.0121565
0.0107456
0.0258183
0.0520637
0.0770783
0.0948606
0.108299
0.119452
0.128953
0.136969
0.143579
0.148886
0.152864
0.15551
0.15683
0.156831
0.155514
0.152871
0.148899
0.143598
0.136993
0.128982
0.11948
0.108314
0.0948516
0.0770367
0.0520123
0.025797
0.0107435
0.012156
0.0149246
0.0143945
0.0364543
0.0751805
0.111622
0.137162
0.153978
0.166077
0.17531
0.182286
0.18741
0.191534
0.194595
0.196608
0.197605
0.197605
0.196608
0.194596
0.191536
0.187414
0.18229
0.175315
0.16608
0.153971
0.137138
0.111585
0.0751472
0.0364413
0.0143931
0.0149248
0.0174904
0.0184007
0.0473597
0.0939547
0.135984
0.165315
0.183538
0.195158
0.202988
0.208441
0.212261
0.215032
0.216999
0.218264
0.218882
0.218882
0.218262
0.216996
0.215028
0.212256
0.208435
0.20298
0.195146
0.18352
0.165293
0.13596
0.0939437
0.047365
0.0184067
0.0174905
0.0198293
0.0226062
0.0583669
0.110192
0.153949
0.183345
0.201261
0.211848
0.218242
0.22224
0.224807
0.226503
0.227624
0.228314
0.228644
0.228643
0.228312
0.22762
0.226497
0.224799
0.22223
0.218228
0.21183
0.201239
0.183322
0.15393
0.110194
0.0583847
0.0226186
0.0198292
0.0219226
0.0268877
0.0689989
0.124494
0.168414
0.195915
0.21209
0.221165
0.22619
0.228999
0.230601
0.231538
0.232094
0.232411
0.232556
0.232555
0.232409
0.232091
0.231533
0.230593
0.228989
0.226175
0.221146
0.212068
0.195893
0.168398
0.124498
0.069021
0.0269011
0.0219226
0.0237352
0.0310954
0.0789873
0.13689
0.179912
0.205002
0.219007
0.226428
0.230214
0.232096
0.233013
0.233455
0.233668
0.233767
0.233807
0.233806
0.233766
0.233665
0.233451
0.233006
0.232087
0.230202
0.226411
0.218988
0.204984
0.1799
0.136894
0.0790073
0.0311073
0.0237351
0.0252875
0.0350578
0.088024
0.147291
0.188134
0.211352
0.223467
0.229439
0.232212
0.233406
0.233864
0.234004
0.234024
0.23401
0.233998
0.233997
0.234009
0.234022
0.234001
0.233859
0.233399
0.232202
0.229426
0.223451
0.211337
0.188123
0.147292
0.0880388
0.0350668
0.0252874
0.0265808
0.0386146
0.0958611
0.155922
0.194871
0.215964
0.226397
0.231185
0.233184
0.233895
0.234062
0.234032
0.233956
0.23389
0.233855
0.233855
0.23389
0.233954
0.23403
0.234058
0.23389
0.233177
0.231176
0.226386
0.215951
0.194861
0.15592
0.0958704
0.0386207
0.0265807
0.0276152
0.0416273
0.102307
0.162733
0.200027
0.219293
0.22834
0.23221
0.233647
0.234035
0.234028
0.233909
0.233791
0.233707
0.233666
0.233665
0.233707
0.233789
0.233907
0.234025
0.234031
0.233642
0.232203
0.228331
0.219283
0.200017
0.162728
0.102311
0.0416308
0.0276152
0.0283912
0.043987
0.107228
0.167746
0.203708
0.221578
0.229593
0.232805
0.233861
0.234046
0.23394
0.23378
0.233647
0.233561
0.23352
0.23352
0.23356
0.233646
0.233778
0.233938
0.234042
0.233856
0.232799
0.229586
0.221569
0.203698
0.16774
0.107229
0.0439886
0.0283912
0.0289087
0.045608
0.110545
0.171034
0.206062
0.222997
0.230338
0.233131
0.233953
0.234022
0.233865
0.233688
0.233553
0.233469
0.233431
0.23343
0.233469
0.233552
0.233686
0.233863
0.234019
0.23395
0.233126
0.230332
0.222989
0.206053
0.171027
0.110544
0.0456086
0.0289087
0.0291675
0.0464322
0.112212
0.172659
0.207206
0.223673
0.230683
0.233274
0.233987
0.234002
0.233824
0.233642
0.233508
0.233427
0.23339
0.23339
0.233426
0.233507
0.23364
0.233822
0.234
0.233983
0.23327
0.230678
0.223667
0.207197
0.172652
0.11221
0.0464324
0.0291674
0.0291674
0.0464318
0.11221
0.172657
0.207203
0.22367
0.230681
0.233273
0.233985
0.234001
0.233824
0.233641
0.233508
0.233427
0.23339
0.233389
0.233426
0.233507
0.23364
0.233822
0.233999
0.233982
0.233268
0.230676
0.223664
0.207195
0.172649
0.112208
0.0464317
0.0291674
0.0289086
0.0456069
0.11054
0.171026
0.206052
0.222988
0.230331
0.233126
0.233949
0.234019
0.233863
0.233686
0.233552
0.233469
0.23343
0.23343
0.233468
0.233551
0.233685
0.233861
0.234016
0.233946
0.233122
0.230326
0.222982
0.206044
0.171018
0.110537
0.0456063
0.0289086
0.028391
0.0439858
0.107222
0.167733
0.203692
0.221563
0.229581
0.232795
0.233854
0.234041
0.233937
0.233777
0.233645
0.23356
0.233519
0.233519
0.233559
0.233644
0.233776
0.233935
0.234039
0.233851
0.232792
0.229577
0.221557
0.203684
0.167724
0.107217
0.0439842
0.028391
0.027615
0.0416269
0.1023
0.162716
0.200005
0.219272
0.228322
0.232196
0.233637
0.234029
0.234024
0.233907
0.233789
0.233706
0.233665
0.233665
0.233706
0.233788
0.233905
0.234022
0.234027
0.233635
0.232194
0.228319
0.219267
0.199997
0.162705
0.102292
0.0416231
0.027615
0.0265804
0.0386157
0.0958558
0.155904
0.194846
0.215938
0.226375
0.231167
0.233171
0.233887
0.234057
0.23403
0.233955
0.23389
0.233855
0.233855
0.23389
0.233954
0.234029
0.234056
0.233886
0.233171
0.231167
0.226373
0.215934
0.194836
0.155889
0.0958426
0.0386092
0.0265804
0.025287
0.0350609
0.0880222
0.147275
0.188107
0.211322
0.223439
0.229417
0.232197
0.233396
0.233859
0.234003
0.234025
0.234012
0.234
0.234
0.234012
0.234025
0.234003
0.233859
0.233398
0.232199
0.22942
0.223442
0.211321
0.188098
0.147256
0.0880022
0.0350508
0.0252871
0.0237346
0.0311015
0.0789911
0.136877
0.179883
0.204968
0.218976
0.226403
0.230198
0.232087
0.233009
0.233456
0.233671
0.233773
0.233813
0.233813
0.233773
0.233672
0.233457
0.233012
0.232091
0.230204
0.226412
0.218985
0.204974
0.179877
0.136854
0.0789639
0.0310876
0.0237347
0.0219219
0.0268963
0.0690075
0.124481
0.16838
0.195877
0.212057
0.221141
0.226175
0.228992
0.230601
0.231543
0.232103
0.232422
0.232568
0.232568
0.232423
0.232104
0.231546
0.230605
0.229
0.226186
0.221155
0.212073
0.195891
0.168381
0.124459
0.0689768
0.0268807
0.021922
0.0198287
0.0226153
0.0583761
0.110176
0.153915
0.183308
0.201232
0.21183
0.218233
0.222239
0.224813
0.226514
0.227639
0.228331
0.228663
0.228663
0.228333
0.227641
0.226518
0.224819
0.222248
0.218246
0.211847
0.201254
0.18333
0.153926
0.110162
0.0583507
0.0226011
0.0198288
0.0174898
0.0184058
0.0473606
0.0939216
0.135936
0.165283
0.183525
0.195155
0.202993
0.208451
0.212275
0.21505
0.217021
0.218288
0.218909
0.218909
0.21829
0.217023
0.215053
0.212279
0.208456
0.203002
0.195169
0.183545
0.165312
0.135968
0.0939336
0.0473551
0.0183992
0.0174898
0.014924
0.0143957
0.0364348
0.0751275
0.111577
0.137153
0.15399
0.166099
0.175336
0.182309
0.187437
0.191562
0.194624
0.196639
0.197636
0.197636
0.196638
0.194623
0.191559
0.187432
0.182303
0.175328
0.166094
0.153997
0.137182
0.111631
0.0751753
0.0364538
0.0143972
0.014924
0.0121552
0.0107451
0.025797
0.0520115
0.0770579
0.0948845
0.10834
0.119499
0.129002
0.137013
0.143619
0.148923
0.152899
0.155544
0.156863
0.156861
0.155539
0.152891
0.148909
0.143598
0.136982
0.128963
0.119458
0.108311
0.0948914
0.0771142
0.0520759
0.0258254
0.0107508
0.0121558
0.00922454
0.00708817
0.0144805
0.0258765
0.0364261
0.0458744
0.0545782
0.0626597
0.07004
0.0766152
0.0822829
0.0869422
0.0905057
0.0929109
0.0941212
0.094119
0.0929048
0.090494
0.0869229
0.082252
0.0765725
0.06999
0.0626101
0.054538
0.0458645
0.0364528
0.0259231
0.014501
0.00709591
0.00922483
0.00575546
0.00126945
0.00509935
0.0089921
0.0130736
0.0169889
0.0207048
0.0241575
0.0272992
0.0301172
0.0325707
0.0346063
0.0361795
0.0372494
0.0377905
0.0377896
0.0372466
0.036174
0.0345976
0.032555
0.0300966
0.0272751
0.0241348
0.0206875
0.0169831
0.0130812
0.00900028
0.00510123
0.00126792
0.00575369
0.00395894
0.00671886
0.00937121
0.0117439
0.0140526
0.0162089
0.018167
0.0198222
0.021248
0.0224721
0.0234683
0.0242587
0.0248488
0.0252409
0.0254366
0.0254366
0.0252409
0.0248488
0.0242587
0.0234682
0.0224721
0.021248
0.019822
0.0181666
0.0162083
0.0140518
0.0117438
0.00937234
0.00672011
0.00395928
0.00354425
0.00603947
0.00863084
0.0109743
0.013336
0.0155774
0.0176456
0.01941
0.0209357
0.0222277
0.023359
0.0242734
0.0249618
0.0254218
0.0256521
0.0256521
0.0254217
0.0249616
0.0242731
0.0233584
0.0222269
0.0209346
0.0194083
0.017643
0.0155744
0.0133338
0.0109736
0.00863192
0.00603722
0.00354493
0.00506856
0.00139665
0.00693574
0.0101527
0.0135846
0.0165708
0.0192155
0.0215058
0.0234575
0.0251076
0.026552
0.0277348
0.0286396
0.0292488
0.0295551
0.029555
0.0292475
0.0286364
0.0277298
0.0265445
0.0250965
0.0234427
0.0214877
0.0192
0.0165598
0.0135776
0.0101554
0.00693881
0.00140041
0.00506564
0.00860886
0.00996795
0.0129991
0.0163093
0.0213702
0.0259757
0.0302938
0.0344082
0.0382686
0.0417453
0.0447518
0.0472323
0.04913
0.0504141
0.051062
0.0510608
0.0504109
0.0491233
0.0472217
0.0447358
0.0417229
0.0382395
0.0343767
0.0302706
0.0259698
0.0213844
0.0163323
0.0130162
0.00998156
0.00860816
0.0114668
0.0126248
0.0172873
0.0246552
0.0353742
0.0464939
0.0559392
0.0640547
0.0712587
0.0776304
0.0830723
0.0874421
0.0907265
0.0929189
0.0940154
0.094014
0.0929138
0.0907171
0.0874272
0.0830507
0.0776018
0.0712244
0.0640229
0.0559274
0.0465186
0.0354267
0.0247016
0.0173081
0.0126333
0.0114668
0.0143139
0.014983
0.0220524
0.0349646
0.0546638
0.074455
0.0902445
0.102265
0.111769
0.119788
0.126639
0.131832
0.13562
0.138106
0.139339
0.139337
0.138101
0.135611
0.131819
0.126623
0.119769
0.111751
0.102256
0.0902641
0.0745109
0.0547324
0.0350106
0.0220671
0.0149828
0.0143126
0.017032
0.0172695
0.027112
0.046515
0.0738645
0.100104
0.121088
0.136324
0.147422
0.155853
0.162431
0.167387
0.170927
0.173212
0.174334
0.174333
0.173209
0.170922
0.167379
0.162422
0.155846
0.14742
0.136335
0.12112
0.10015
0.073913
0.046538
0.0271121
0.0172621
0.0170305
0.0195311
0.0195971
0.0320916
0.0580285
0.0910387
0.121282
0.144745
0.161555
0.173286
0.181573
0.187547
0.191834
0.194799
0.196669
0.197574
0.197573
0.196666
0.194795
0.191829
0.187543
0.181571
0.17329
0.161571
0.144771
0.121313
0.0910612
0.0580293
0.0320801
0.0195872
0.01953
0.0218188
0.0220192
0.0371663
0.0686301
0.105263
0.137763
0.162146
0.179209
0.190747
0.19849
0.203721
0.207258
0.209592
0.211016
0.211692
0.211691
0.211014
0.209589
0.207253
0.203718
0.198489
0.190751
0.17922
0.162163
0.137781
0.105269
0.0686195
0.0371512
0.0220089
0.0218179
0.0239219
0.024386
0.0421157
0.078161
0.1172
0.150625
0.174885
0.191385
0.202194
0.209143
0.213583
0.21641
0.218176
0.219208
0.219684
0.219683
0.219206
0.218173
0.216406
0.21358
0.209141
0.202195
0.19139
0.174894
0.150633
0.117199
0.078148
0.0421019
0.024378
0.0239214
0.0257644
0.0265755
0.0467324
0.0865958
0.127929
0.160983
0.184359
0.199823
0.209635
0.215694
0.219372
0.221579
0.222878
0.223598
0.223919
0.223919
0.223596
0.222875
0.221576
0.219369
0.215692
0.209635
0.199824
0.184362
0.160987
0.127927
0.0865845
0.0467218
0.0265701
0.0257641
0.0273244
0.0285199
0.0510451
0.0937799
0.136328
0.169037
0.191372
0.205685
0.214464
0.21967
0.222678
0.224379
0.225317
0.225807
0.226016
0.226016
0.225806
0.225315
0.224376
0.222675
0.219668
0.214462
0.205685
0.191374
0.16904
0.136327
0.0937721
0.0510379
0.0285166
0.0273243
0.0285879
0.0301537
0.0547055
0.0996199
0.142872
0.175107
0.196455
0.209715
0.217576
0.222057
0.224524
0.225839
0.226517
0.226847
0.226981
0.22698
0.226846
0.226515
0.225837
0.224522
0.222055
0.217575
0.209715
0.196457
0.175111
0.142875
0.0996166
0.0547016
0.0301519
0.0285878
0.029544
0.0314247
0.0575602
0.104161
0.147743
0.179473
0.199985
0.212394
0.219533
0.22346
0.225529
0.226573
0.227075
0.227302
0.227388
0.227388
0.227301
0.227074
0.226571
0.225528
0.223459
0.219533
0.212396
0.199989
0.179479
0.14775
0.104163
0.0575586
0.0314243
0.0295439
0.0301847
0.0322934
0.0595116
0.107224
0.150965
0.182297
0.202211
0.214029
0.220677
0.224236
0.226047
0.226921
0.227318
0.227484
0.227543
0.227542
0.227483
0.227316
0.22692
0.226046
0.224236
0.220679
0.214032
0.202217
0.182306
0.150975
0.107227
0.0595109
0.0322934
0.0301847
0.0305065
0.0327348
0.0605021
0.108764
0.152567
0.183683
0.203286
0.214803
0.221204
0.22458
0.226266
0.227059
0.227406
0.227545
0.227591
0.227591
0.227544
0.227405
0.227058
0.226266
0.224581
0.221207
0.214808
0.203293
0.183693
0.152578
0.108767
0.0605016
0.0327349
0.0305065
0.0305065
0.0327349
0.0605019
0.108763
0.152566
0.183681
0.203284
0.214801
0.221202
0.224579
0.226265
0.227058
0.227406
0.227545
0.227591
0.227591
0.227544
0.227405
0.227057
0.226265
0.22458
0.221206
0.214807
0.203293
0.183693
0.152577
0.108767
0.0605014
0.0327348
0.0305064
0.0301846
0.0322934
0.059511
0.107224
0.150961
0.182291
0.202204
0.214023
0.220672
0.224232
0.226045
0.22692
0.227317
0.227484
0.227543
0.227543
0.227484
0.227316
0.226919
0.226045
0.224234
0.220676
0.21403
0.202214
0.182304
0.150974
0.107228
0.0595108
0.0322935
0.0301846
0.0295438
0.0314245
0.0575595
0.104161
0.147737
0.179462
0.199974
0.212384
0.219525
0.223454
0.225525
0.226571
0.227075
0.227303
0.227389
0.227389
0.227303
0.227075
0.226571
0.225527
0.223457
0.21953
0.212393
0.199986
0.179477
0.14775
0.104165
0.0575599
0.0314251
0.0295438
0.0285876
0.0301531
0.054705
0.0996195
0.142863
0.175092
0.19644
0.209702
0.217566
0.222051
0.224521
0.225838
0.226518
0.22685
0.226984
0.226984
0.22685
0.226518
0.225839
0.224523
0.222055
0.217573
0.209713
0.196455
0.17511
0.142878
0.0996247
0.0547059
0.0301541
0.0285876
0.0273241
0.0285195
0.0510454
0.0937778
0.136317
0.169021
0.191356
0.205672
0.214455
0.219665
0.222677
0.224381
0.225322
0.225814
0.226024
0.226024
0.225814
0.225323
0.224382
0.22268
0.21967
0.214462
0.205684
0.191371
0.169039
0.136332
0.0937826
0.0510464
0.0285207
0.027324
0.0257639
0.0265751
0.0467339
0.0865931
0.127917
0.160968
0.184345
0.199812
0.20963
0.215693
0.219376
0.221587
0.222888
0.223611
0.223934
0.223934
0.223612
0.22289
0.221589
0.21938
0.215699
0.209638
0.199823
0.184359
0.160984
0.12793
0.0865977
0.0467358
0.0265767
0.0257639
0.0239213
0.0243849
0.0421153
0.0781578
0.117187
0.150611
0.174876
0.19138
0.202195
0.209149
0.213594
0.216425
0.218195
0.21923
0.219708
0.219708
0.219231
0.218197
0.216428
0.213598
0.209155
0.202202
0.191389
0.174887
0.150624
0.117198
0.0781647
0.0421206
0.0243883
0.0239214
0.0218179
0.0220172
0.0371624
0.068627
0.105238
0.137749
0.162141
0.179212
0.190757
0.198506
0.203742
0.207283
0.209621
0.211048
0.211726
0.211727
0.21105
0.209624
0.207287
0.203747
0.198512
0.190763
0.179219
0.162149
0.137757
0.105246
0.0686358
0.0371717
0.0220233
0.0218182
0.0195294
0.0195929
0.0320814
0.0580259
0.0909369
0.121254
0.144742
0.161567
0.173307
0.181601
0.187581
0.191871
0.194839
0.196712
0.197619
0.19762
0.196714
0.194843
0.191876
0.187586
0.181608
0.173314
0.161575
0.14475
0.121257
0.0909389
0.0580321
0.0320928
0.0196013
0.01953
0.0170302
0.0172622
0.0270951
0.0465287
0.0738795
0.100108
0.121092
0.136345
0.147451
0.15589
0.162473
0.167432
0.170975
0.173263
0.174386
0.174387
0.173266
0.17098
0.167438
0.162481
0.1559
0.147463
0.136356
0.121102
0.100107
0.073864
0.04652
0.0271028
0.0172715
0.0170312
0.0143118
0.0149733
0.0220464
0.0349698
0.054685
0.0744648
0.0902497
0.102284
0.11179
0.119819
0.126674
0.13187
0.135661
0.13815
0.139386
0.139387
0.138154
0.135668
0.13188
0.126687
0.119836
0.111812
0.102303
0.0902673
0.0744573
0.0546471
0.0349416
0.0220436
0.0149828
0.0143133
0.0114657
0.0126179
0.0172829
0.0246589
0.0353874
0.0464926
0.0559297
0.0640454
0.0712557
0.0776355
0.0830836
0.0874578
0.0907459
0.0929411
0.0940402
0.0940413
0.0929448
0.0907528
0.0874688
0.0831
0.0776592
0.0712869
0.064082
0.0559606
0.0464945
0.0353492
0.0246219
0.0172742
0.0126234
0.0114656
0.00860809
0.00999085
0.0130065
0.0163163
0.0213738
0.0259763
0.0302948
0.0344109
0.0382713
0.0417504
0.0447576
0.0472382
0.0491362
0.0504206
0.0510694
0.0510697
0.0504226
0.0491396
0.0472446
0.0447677
0.0417659
0.0382928
0.0344383
0.0303219
0.0259918
0.0213587
0.0162913
0.0129894
0.00997339
0.00860797
0.00506919
0.00139513
0.00690933
0.0101371
0.0135745
0.0165721
0.0192196
0.02151
0.0234596
0.0251122
0.0265556
0.0277383
0.0286415
0.0292511
0.0295575
0.0295575
0.0292514
0.0286429
0.0277403
0.0265597
0.025118
0.0234684
0.0215225
0.0192326
0.0165818
0.0135769
0.0101338
0.00691074
0.00139225
0.00506173
0.00354428
0.00603741
0.00863052
0.0109737
0.0133353
0.0155776
0.0176468
0.0194116
0.0209308
0.0222285
0.02336
0.0242744
0.0249628
0.0254228
0.0256532
0.0256532
0.0254229
0.0249629
0.0242746
0.0233603
0.0222291
0.0209317
0.0194131
0.0176493
0.0155812
0.0133398
0.0109772
0.00863323
0.00604646
0.00354331
0.00334331
0.00564865
0.00812046
0.010353
0.0126279
0.0147805
0.0167716
0.0185073
0.0200477
0.021399
0.0225133
0.0234108
0.0240885
0.0245426
0.0247703
0.0247703
0.0245426
0.0240885
0.0234107
0.0225131
0.0213988
0.0200477
0.0185077
0.0167722
0.0147808
0.0126289
0.0103553
0.00812235
0.00565058
0.00334359
0.00482327
0.00186344
0.00938371
0.0132235
0.0174328
0.0211024
0.0242648
0.0269132
0.0290765
0.0308479
0.0322358
0.0333235
0.0341317
0.0346718
0.0349425
0.0349425
0.0346719
0.0341321
0.0333236
0.0322366
0.0308501
0.0290814
0.0269213
0.0242738
0.0211095
0.0174414
0.0132277
0.00938634
0.00185822
0.00482044
0.00822448
0.0127865
0.0162744
0.0182291
0.0204207
0.0234917
0.0266981
0.0298081
0.0326973
0.0353312
0.037649
0.0395524
0.04102
0.0420329
0.0425529
0.0425529
0.0420331
0.0410207
0.0395531
0.0376514
0.0353359
0.0327061
0.029819
0.0267097
0.0235026
0.0204265
0.0182285
0.0162699
0.0127827
0.0082245
0.0108777
0.0160807
0.0200694
0.0217801
0.0271201
0.0339266
0.0404518
0.0464414
0.051913
0.0568753
0.061225
0.064825
0.0675813
0.0694451
0.0703856
0.0703862
0.0694467
0.067584
0.064829
0.0612318
0.0568869
0.051929
0.0464612
0.0404715
0.0339396
0.0271179
0.0217713
0.0200635
0.0160759
0.0108776
0.0135584
0.0190177
0.022223
0.0272503
0.0381348
0.0523813
0.0653297
0.0759567
0.0845992
0.0918647
0.0979555
0.102847
0.106521
0.108968
0.110191
0.110192
0.108971
0.106527
0.102857
0.0979697
0.091885
0.0846242
0.0759837
0.0653598
0.0524027
0.0381366
0.0272443
0.0222199
0.0190219
0.013559
0.0161415
0.0215826
0.0248091
0.0344002
0.0520915
0.0734151
0.0924073
0.10723
0.118497
0.127249
0.134142
0.139467
0.143367
0.145925
0.147192
0.147194
0.14593
0.143375
0.13948
0.13416
0.127276
0.118532
0.107272
0.0924529
0.0734507
0.0521074
0.034403
0.0248105
0.021585
0.0161416
0.0186244
0.0238947
0.0280708
0.0422142
0.0660422
0.0926446
0.115611
0.13326
0.146268
0.155858
0.162992
0.168258
0.171992
0.17439
0.175564
0.175565
0.174394
0.172
0.168271
0.163011
0.155884
0.146305
0.13331
0.115667
0.0926914
0.0660721
0.0422243
0.0280744
0.0238981
0.0186245
0.0209336
0.0259629
0.0317025
0.0503162
0.0792292
0.109032
0.134079
0.153104
0.166904
0.176759
0.183778
0.188735
0.192122
0.19424
0.19526
0.195261
0.194243
0.192128
0.188745
0.183793
0.176782
0.166937
0.153151
0.134135
0.109085
0.0792637
0.0503265
0.0317057
0.0259654
0.0209336
0.0230029
0.0278552
0.0354893
0.058049
0.0906797
0.122506
0.148462
0.167852
0.181694
0.191341
0.197977
0.20248
0.205441
0.207237
0.208086
0.208086
0.20724
0.205446
0.202487
0.197989
0.191359
0.18172
0.167889
0.148509
0.122553
0.0907093
0.0580581
0.035491
0.027856
0.0230029
0.0248309
0.0295887
0.0392487
0.0650664
0.100463
0.133447
0.159594
0.178737
0.192145
0.201269
0.207351
0.211328
0.213845
0.215323
0.216006
0.216007
0.215325
0.21385
0.211334
0.207361
0.201283
0.192165
0.178766
0.15963
0.133485
0.10049
0.0650763
0.0392516
0.0295895
0.0248309
0.0263917
0.0311172
0.0423042
0.0709347
0.108467
0.142139
0.168114
0.186714
0.199459
0.207916
0.213383
0.216831
0.218933
0.220126
0.220664
0.220665
0.220128
0.218938
0.216838
0.213392
0.207928
0.199476
0.186736
0.168142
0.142169
0.108492
0.0709463
0.0423077
0.0311181
0.0263917
0.0276639
0.0324095
0.0448827
0.0758225
0.114828
0.148846
0.174482
0.192453
0.204495
0.212284
0.21717
0.220147
0.221897
0.222856
0.223278
0.223279
0.222858
0.221901
0.220154
0.217179
0.212295
0.20451
0.192473
0.174507
0.148873
0.114853
0.0758369
0.0448869
0.0324103
0.0276639
0.0286315
0.0334159
0.0469207
0.0795768
0.119586
0.153747
0.179019
0.196415
0.207839
0.21506
0.219469
0.222073
0.223552
0.224336
0.224674
0.224674
0.224339
0.223556
0.222079
0.219478
0.215071
0.207853
0.196433
0.179042
0.153772
0.119611
0.0795928
0.0469252
0.0334171
0.0286315
0.029283
0.0341066
0.0483308
0.0821418
0.122765
0.156961
0.181938
0.198904
0.209878
0.216692
0.220767
0.223116
0.224415
0.225086
0.225368
0.225369
0.225088
0.224419
0.223122
0.220776
0.216703
0.209891
0.19892
0.181959
0.156986
0.12279
0.0821579
0.0483352
0.0341077
0.029283
0.0296104
0.0344582
0.0490508
0.0834308
0.124355
0.158556
0.183371
0.200107
0.210845
0.217449
0.221352
0.223572
0.224781
0.225396
0.225652
0.225653
0.225398
0.224785
0.223578
0.22136
0.217459
0.210858
0.200123
0.18339
0.158579
0.12438
0.0834464
0.0490548
0.0344591
0.0296104
0.0296105
0.0344594
0.0490546
0.0834385
0.124365
0.158567
0.18338
0.200114
0.21085
0.217452
0.221354
0.223573
0.224781
0.225396
0.225652
0.225653
0.225399
0.224785
0.223578
0.221362
0.217462
0.210862
0.200129
0.183398
0.158588
0.124388
0.0834535
0.0490584
0.03446
0.0296106
0.0292835
0.0341099
0.0483422
0.0821648
0.122795
0.156993
0.181966
0.198925
0.209894
0.216703
0.220774
0.22312
0.224417
0.225087
0.225369
0.22537
0.225089
0.22442
0.223125
0.220781
0.216712
0.209904
0.198938
0.181982
0.157012
0.122817
0.0821796
0.0483461
0.0341107
0.0292835
0.0286322
0.0334209
0.046939
0.0796157
0.119637
0.153799
0.179066
0.196451
0.207865
0.215077
0.219479
0.222078
0.223554
0.224337
0.224673
0.224674
0.224339
0.223557
0.222083
0.219485
0.215084
0.207874
0.196462
0.17908
0.153818
0.119658
0.0796304
0.0469435
0.0334221
0.0286323
0.027665
0.0324153
0.0449063
0.0758751
0.114898
0.148918
0.174547
0.192504
0.20453
0.212305
0.217181
0.220152
0.221897
0.222853
0.223274
0.223275
0.222855
0.2219
0.220156
0.217187
0.212312
0.204537
0.192513
0.174561
0.148937
0.114919
0.0758903
0.0449117
0.0324172
0.027665
0.0263931
0.0311232
0.0423308
0.0709932
0.108552
0.14223
0.168196
0.186777
0.199501
0.207939
0.213392
0.21683
0.218927
0.220116
0.220653
0.220653
0.220118
0.218929
0.216834
0.213396
0.207944
0.199507
0.186785
0.168209
0.142251
0.108575
0.0710082
0.0423366
0.0311257
0.0263932
0.0248327
0.0295936
0.0392752
0.0651346
0.100565
0.13356
0.159694
0.178812
0.19219
0.201289
0.207352
0.211315
0.213825
0.215299
0.21598
0.215981
0.2153
0.213827
0.211318
0.207355
0.201291
0.192194
0.178818
0.159707
0.133582
0.100589
0.0651485
0.0392808
0.0295961
0.0248328
0.023005
0.0278569
0.0355161
0.0581245
0.0908025
0.122643
0.14858
0.167934
0.181736
0.19135
0.197962
0.202448
0.205401
0.207192
0.208038
0.208038
0.207192
0.205402
0.202449
0.197962
0.19135
0.181737
0.167938
0.148592
0.122666
0.0908269
0.0581373
0.0355203
0.0278598
0.0230051
0.0209358
0.0259585
0.0317182
0.0503947
0.0793789
0.109193
0.134208
0.153183
0.166934
0.17675
0.183741
0.188679
0.192056
0.194168
0.195185
0.195185
0.194168
0.192055
0.188678
0.183739
0.176748
0.166934
0.153187
0.134221
0.109216
0.0794024
0.0504069
0.0317243
0.0259624
0.020936
0.0186268
0.0238818
0.0280692
0.0422844
0.066265
0.0928209
0.115728
0.133313
0.146271
0.15582
0.162927
0.168175
0.171899
0.174291
0.175462
0.175461
0.17429
0.171897
0.168173
0.162925
0.155819
0.146272
0.133322
0.115746
0.0928417
0.0662849
0.0422933
0.0280747
0.0238871
0.0186274
0.0161432
0.0215572
0.0247793
0.0344263
0.052207
0.0735322
0.0924649
0.107215
0.118451
0.127174
0.134046
0.139358
0.143251
0.145805
0.14707
0.14707
0.145804
0.14325
0.139358
0.134046
0.127177
0.118457
0.107231
0.0924913
0.0735541
0.0522138
0.0344251
0.0247809
0.021562
0.016144
0.0135599
0.0189834
0.0221552
0.027264
0.038194
0.0524309
0.0653157
0.075825
0.0844989
0.0917539
0.0978352
0.102722
0.106393
0.10884
0.110062
0.110063
0.108841
0.106396
0.102727
0.0978423
0.091764
0.0845094
0.0758435
0.0653438
0.0524466
0.0381895
0.027253
0.0221527
0.0189846
0.0135602
0.0108789
0.0160331
0.0199987
0.021763
0.0271377
0.0339351
0.0404267
0.0463802
0.0518313
0.0567798
0.06112
0.0647155
0.0674702
0.0693341
0.0702751
0.070276
0.0693362
0.0674744
0.0647222
0.0611294
0.0567917
0.0518467
0.0463982
0.0404439
0.0339437
0.0271325
0.0217558
0.0199956
0.0160349
0.0108781
0.00822466
0.0127879
0.0162733
0.0182444
0.0204461
0.0235121
0.0267084
0.0298062
0.0326832
0.0353039
0.0376133
0.0395093
0.0409732
0.0419861
0.0425062
0.0425066
0.0419874
0.0409757
0.0395135
0.0376187
0.0353108
0.0326914
0.0298163
0.0267168
0.0235174
0.020446
0.0182406
0.0162701
0.0127858
0.00822332
0.00482645
0.00186358
0.00935798
0.0132193
0.0174373
0.0211114
0.0242806
0.026929
0.0290871
0.0308521
0.032233
0.0333147
0.0341196
0.0346569
0.0349266
0.0349271
0.0346577
0.0341207
0.0333178
0.0322368
0.0308561
0.0290925
0.0269356
0.024286
0.021113
0.017435
0.0132206
0.00935839
0.00186274
0.00482664
0.00334361
0.0056458
0.00811803
0.0103486
0.0126229
0.0147752
0.0167667
0.018503
0.0200451
0.0213946
0.0225088
0.0234063
0.0240841
0.0245383
0.0247661
0.0247661
0.0245383
0.0240842
0.0234065
0.0225091
0.021395
0.0200457
0.018504
0.0167678
0.0147764
0.0126246
0.0103513
0.00811981
0.00564763
0.00334307
0.00328064
0.00553356
0.00797334
0.0101767
0.0124322
0.0145558
0.0165155
0.0182079
0.0196908
0.0209781
0.0220619
0.0229369
0.0235978
0.0240405
0.0242626
0.0242626
0.0240405
0.0235976
0.0229367
0.0220616
0.0209775
0.01969
0.0182068
0.0165144
0.0145546
0.0124311
0.0101761
0.00797176
0.00553809
0.00328037
0.00475897
0.00199027
0.0100234
0.0142214
0.0188392
0.0228425
0.0263151
0.0292303
0.0316127
0.03355
0.035112
0.0363412
0.0372552
0.0378603
0.0381622
0.038162
0.0378595
0.0372534
0.0363392
0.0351083
0.0335445
0.0316047
0.0292206
0.0263061
0.022838
0.0188311
0.0142201
0.0100204
0.00199479
0.00475865
0.00809734
0.0133504
0.0172448
0.0194454
0.0218498
0.0247158
0.0276767
0.0305167
0.0331285
0.0354477
0.0374425
0.0390966
0.0403668
0.041215
0.0416365
0.0416364
0.0412144
0.0403658
0.0390945
0.037439
0.0354429
0.0331221
0.0305096
0.0276711
0.0247141
0.0218528
0.0194518
0.017252
0.0133561
0.00809729
0.0106912
0.0170566
0.0213819
0.0225303
0.0255134
0.030683
0.0361818
0.0411791
0.0458304
0.0500869
0.0538352
0.0569603
0.0593698
0.0610007
0.0618217
0.061822
0.0610012
0.0593705
0.0569603
0.0538341
0.0500842
0.0458273
0.0411769
0.0361844
0.0306936
0.0255317
0.0225447
0.0213908
0.0170604
0.0106909
0.0133202
0.0204814
0.0238414
0.0262268
0.0333991
0.0444955
0.055801
0.0650613
0.0729204
0.0796439
0.0852972
0.0898865
0.093364
0.0956951
0.0968638
0.0968651
0.0956989
0.09337
0.0898944
0.0853061
0.0796501
0.0729309
0.0650835
0.0558359
0.0445327
0.0334332
0.0262462
0.0238486
0.0204791
0.0133197
0.0158423
0.0233697
0.0262086
0.0313303
0.044276
0.0622409
0.079765
0.0938716
0.104822
0.113447
0.120302
0.125654
0.129611
0.132225
0.133526
0.133528
0.132232
0.129622
0.12567
0.120323
0.113472
0.104858
0.0939239
0.0798281
0.0623075
0.0443251
0.0313519
0.0262147
0.0233676
0.0158417
0.0182227
0.0259236
0.0288
0.0377075
0.0565186
0.07996
0.101904
0.119474
0.132747
0.142717
0.150248
0.155882
0.159922
0.162538
0.163826
0.163828
0.162545
0.159933
0.155899
0.150273
0.142753
0.132799
0.119547
0.101995
0.0800525
0.0565788
0.0377291
0.0288041
0.0259207
0.0182222
0.0204312
0.0282379
0.0316123
0.0442821
0.0680236
0.0955861
0.120285
0.139843
0.154468
0.165192
0.173009
0.178641
0.182552
0.185026
0.186227
0.186228
0.185031
0.182561
0.178655
0.173032
0.165228
0.154523
0.139923
0.120386
0.0956833
0.0680854
0.044304
0.0316151
0.0282347
0.020431
0.0224379
0.0303383
0.0344733
0.050784
0.0786483
0.108852
0.135053
0.155509
0.170662
0.181594
0.189359
0.19478
0.19843
0.200681
0.201756
0.201757
0.200685
0.198437
0.194792
0.189379
0.181626
0.170713
0.155583
0.13515
0.108949
0.0787147
0.0508059
0.0344771
0.030336
0.0224377
0.0242149
0.0322163
0.0371715
0.0568186
0.0878638
0.119821
0.146751
0.167426
0.182546
0.193278
0.200729
0.205786
0.209092
0.211079
0.212012
0.212013
0.211082
0.209098
0.205797
0.200747
0.193306
0.182591
0.167492
0.146837
0.119913
0.0879286
0.0568426
0.0371759
0.0322162
0.0242149
0.0257365
0.0338551
0.0398207
0.0622488
0.095613
0.128679
0.155874
0.176392
0.191161
0.201455
0.208442
0.213056
0.215987
0.217704
0.218496
0.218497
0.217708
0.215994
0.213067
0.208459
0.201482
0.191202
0.17645
0.155951
0.128764
0.0956783
0.0622769
0.0398264
0.0338559
0.0257366
0.0269805
0.0352199
0.042115
0.0667153
0.1018
0.135576
0.162796
0.182989
0.197282
0.207054
0.213537
0.217709
0.220286
0.221758
0.222425
0.222426
0.221762
0.220293
0.21772
0.213555
0.20708
0.19732
0.183042
0.162866
0.135656
0.101866
0.0667473
0.0421221
0.0352216
0.0269807
0.0279287
0.0362723
0.0439181
0.0700833
0.106419
0.140643
0.167785
0.187627
0.201455
0.210742
0.216776
0.220567
0.222852
0.224127
0.224695
0.224696
0.224131
0.222859
0.220579
0.216794
0.210768
0.201491
0.187676
0.16785
0.140718
0.106483
0.0701164
0.043926
0.0362747
0.0279289
0.0285684
0.0369907
0.0451641
0.0723471
0.109493
0.143981
0.171025