/*--------------------------------*- C++ -*----------------------------------*\
| =========                 |                                                 |
| \\      /  F ield         | OpenFOAM: The Open Source CFD Toolbox           |
|  \\    /   O peration     | Version:  2312                                  |
|   \\  /    A nd           | Website:  www.openfoam.com                      |
|    \\/     M anipulation  |                                                 |
\*---------------------------------------------------------------------------*/
FoamFile
{
    version     2.0;
    format      ascii;
    arch        "LSB;label=32;scalar=64";
    class       volScalarField;
    location    "50";
    object      epsilon;
}
// * * * * * * * * * * * * * * * * * * * * * * * * * * * * * * * * * * * * * //

dimensions      [0 2 -3 0 0 0 0];

internalField   nonuniform List<scalar> 
27000
(
0.00152365
0.00022414
0.00011028
6.97247e-05
5.17549e-05
4.1507e-05
3.48062e-05
3.01513e-05
2.67989e-05
2.42991e-05
2.24565e-05
2.11193e-05
2.01877e-05
1.95978e-05
1.93117e-05
1.93117e-05
1.95978e-05
2.01877e-05
2.11194e-05
2.24566e-05
2.42993e-05
2.67993e-05
3.01517e-05
3.48069e-05
4.15079e-05
5.17559e-05
6.97252e-05
0.000110277
0.000224148
0.00152353
0.000150032
3.23961e-05
1.38165e-05
9.29793e-06
7.21874e-06
6.00376e-06
5.16444e-06
4.54746e-06
4.08453e-06
3.73186e-06
3.46647e-06
3.27185e-06
3.1355e-06
3.04898e-06
3.00692e-06
3.00686e-06
3.04882e-06
3.13517e-06
3.27109e-06
3.46535e-06
3.73016e-06
4.08212e-06
4.5442e-06
5.16203e-06
6.00146e-06
7.22185e-06
9.30918e-06
1.38243e-05
3.24192e-05
0.000150012
9.94013e-05
1.52798e-05
5.17596e-06
2.59399e-06
1.94162e-06
1.65856e-06
1.4788e-06
1.34596e-06
1.24381e-06
1.16446e-06
1.10356e-06
1.05801e-06
1.02564e-06
1.00489e-06
9.9476e-07
9.94749e-07
1.00485e-06
1.02555e-06
1.05784e-06
1.10329e-06
1.16407e-06
1.24326e-06
1.34531e-06
1.47826e-06
1.65836e-06
1.94279e-06
2.5977e-06
5.18188e-06
1.52927e-05
9.93946e-05
6.63302e-05
1.02988e-05
2.87695e-06
1.41298e-06
1.00881e-06
8.6615e-07
7.93666e-07
7.44945e-07
7.08279e-07
6.79909e-07
6.58027e-07
6.41317e-07
6.29275e-07
6.21489e-07
6.1767e-07
6.17667e-07
6.21479e-07
6.29252e-07
6.41276e-07
6.57962e-07
6.79813e-07
7.08146e-07
7.44794e-07
7.93563e-07
8.66224e-07
1.00931e-06
1.41429e-06
2.87925e-06
1.03007e-05
6.63267e-05
4.9014e-05
7.30891e-06
2.07914e-06
1.0554e-06
7.57154e-07
6.46337e-07
5.96673e-07
5.68153e-07
5.4895e-07
5.35606e-07
5.26435e-07
5.18997e-07
5.13509e-07
5.09926e-07
5.08162e-07
5.08163e-07
5.09927e-07
5.1351e-07
5.18996e-07
5.26431e-07
5.35601e-07
5.48941e-07
5.68146e-07
5.96695e-07
6.46433e-07
7.57374e-07
1.05581e-06
2.07976e-06
7.30939e-06
4.90134e-05
3.84449e-05
5.66962e-06
1.66531e-06
8.91451e-07
6.56158e-07
5.64022e-07
5.23684e-07
5.03121e-07
4.9105e-07
4.83289e-07
4.78106e-07
4.74361e-07
4.71675e-07
4.69934e-07
4.69079e-07
4.6908e-07
4.69938e-07
4.71682e-07
4.74371e-07
4.78119e-07
4.83304e-07
4.91067e-07
5.03145e-07
5.23724e-07
5.6408e-07
6.56247e-07
8.91519e-07
1.66509e-06
5.66755e-06
3.84449e-05
3.14138e-05
4.63997e-06
1.41838e-06
7.94618e-07
6.02302e-07
5.25994e-07
4.91855e-07
4.75446e-07
4.66847e-07
4.61927e-07
4.58912e-07
4.56935e-07
4.55607e-07
4.54773e-07
4.54369e-07
4.5437e-07
4.54777e-07
4.55614e-07
4.56945e-07
4.58926e-07
4.61945e-07
4.66872e-07
4.75479e-07
4.91898e-07
5.26043e-07
6.02354e-07
7.9459e-07
1.41796e-06
4.6373e-06
3.14138e-05
2.6458e-05
3.93442e-06
1.2503e-06
7.28795e-07
5.66543e-07
5.03876e-07
4.75815e-07
4.62682e-07
4.56299e-07
4.53034e-07
4.51256e-07
4.50218e-07
4.49583e-07
4.49206e-07
4.49028e-07
4.49029e-07
4.49209e-07
4.49588e-07
4.50226e-07
4.51268e-07
4.53051e-07
4.56322e-07
4.62712e-07
4.75853e-07
5.03918e-07
5.66581e-07
7.28758e-07
1.24993e-06
3.93244e-06
2.6458e-05
2.2891e-05
3.42858e-06
1.128e-06
6.81038e-07
5.41615e-07
4.89448e-07
4.66608e-07
4.56268e-07
4.51544e-07
4.49359e-07
4.48316e-07
4.4779e-07
4.47507e-07
4.47355e-07
4.47286e-07
4.47287e-07
4.47357e-07
4.47511e-07
4.47796e-07
4.48325e-07
4.49371e-07
4.51562e-07
4.56292e-07
4.66638e-07
4.8948e-07
5.41641e-07
6.81013e-07
1.12774e-06
3.4273e-06
2.2891e-05
2.0299e-05
3.06065e-06
1.03722e-06
6.45817e-07
5.25824e-07
4.80095e-07
4.61002e-07
4.52803e-07
4.49311e-07
4.47853e-07
4.47254e-07
4.47006e-07
4.46898e-07
4.46849e-07
4.46829e-07
4.46829e-07
4.4685e-07
4.469e-07
4.4701e-07
4.4726e-07
4.47862e-07
4.49323e-07
4.5282e-07
4.61024e-07
4.80121e-07
5.25845e-07
6.45806e-07
1.03706e-06
3.0599e-06
2.0299e-05
1.84125e-05
2.79246e-06
9.698e-07
6.19163e-07
5.13185e-07
4.73455e-07
4.57368e-07
4.50801e-07
4.48203e-07
4.47233e-07
4.46901e-07
4.46799e-07
4.46773e-07
4.46767e-07
4.46767e-07
4.46767e-07
4.46768e-07
4.46774e-07
4.46801e-07
4.46905e-07
4.47239e-07
4.48211e-07
4.50813e-07
4.57383e-07
4.73473e-07
5.13204e-07
6.19164e-07
9.69713e-07
2.79203e-06
1.84125e-05
1.70587e-05
2.59946e-06
9.20669e-07
5.99586e-07
5.03793e-07
4.6868e-07
4.54928e-07
4.49583e-07
4.47619e-07
4.4697e-07
4.46794e-07
4.46768e-07
4.46777e-07
4.46788e-07
4.46794e-07
4.46794e-07
4.46788e-07
4.46778e-07
4.46769e-07
4.46797e-07
4.46974e-07
4.47625e-07
4.49591e-07
4.54938e-07
4.68693e-07
5.0381e-07
5.99595e-07
9.2063e-07
2.59925e-06
1.70586e-05
1.61242e-05
2.46613e-06
8.86445e-07
5.8593e-07
4.97249e-07
4.65406e-07
4.5332e-07
4.48834e-07
4.47298e-07
4.46852e-07
4.46766e-07
4.46777e-07
4.468e-07
4.46816e-07
4.46824e-07
4.46824e-07
4.46817e-07
4.46801e-07
4.46778e-07
4.46768e-07
4.46855e-07
4.47302e-07
4.4884e-07
4.53328e-07
4.65416e-07
4.97263e-07
5.85945e-07
8.86433e-07
2.46604e-06
1.61242e-05
1.55364e-05
2.38221e-06
8.64806e-07
5.77299e-07
4.93133e-07
4.63373e-07
4.52347e-07
4.484e-07
4.47126e-07
4.46798e-07
4.4676e-07
4.46788e-07
4.46817e-07
4.46834e-07
4.46841e-07
4.46841e-07
4.46834e-07
4.46818e-07
4.46789e-07
4.46762e-07
4.468e-07
4.47129e-07
4.48405e-07
4.52353e-07
4.63381e-07
4.93146e-07
5.77315e-07
8.64806e-07
2.38217e-06
1.55364e-05
1.52527e-05
2.34167e-06
8.54324e-07
5.73122e-07
4.9115e-07
4.62402e-07
4.5189e-07
4.48202e-07
4.47051e-07
4.46776e-07
4.4676e-07
4.46795e-07
4.46825e-07
4.46842e-07
4.46849e-07
4.46849e-07
4.46842e-07
4.46825e-07
4.46796e-07
4.46761e-07
4.46779e-07
4.47054e-07
4.48206e-07
4.51895e-07
4.6241e-07
4.91162e-07
5.73138e-07
8.54329e-07
2.34166e-06
1.52527e-05
1.52526e-05
2.34168e-06
8.54327e-07
5.73124e-07
4.91152e-07
4.62404e-07
4.51891e-07
4.48203e-07
4.47052e-07
4.46777e-07
4.4676e-07
4.46795e-07
4.46825e-07
4.46842e-07
4.46849e-07
4.46849e-07
4.46842e-07
4.46826e-07
4.46796e-07
4.46762e-07
4.46779e-07
4.47054e-07
4.48206e-07
4.51896e-07
4.62411e-07
4.91164e-07
5.7314e-07
8.54335e-07
2.34168e-06
1.52526e-05
1.55362e-05
2.38222e-06
8.64813e-07
5.77306e-07
4.93139e-07
4.63378e-07
4.52351e-07
4.48403e-07
4.47128e-07
4.46799e-07
4.46762e-07
4.46789e-07
4.46818e-07
4.46835e-07
4.46842e-07
4.46842e-07
4.46835e-07
4.46818e-07
4.4679e-07
4.46763e-07
4.46801e-07
4.47131e-07
4.48406e-07
4.52355e-07
4.63384e-07
4.93151e-07
5.77324e-07
8.64828e-07
2.38225e-06
1.55361e-05
1.61238e-05
2.46612e-06
8.86453e-07
5.85943e-07
4.9726e-07
4.65416e-07
4.53328e-07
4.4884e-07
4.47302e-07
4.46855e-07
4.46768e-07
4.46778e-07
4.46802e-07
4.46818e-07
4.46825e-07
4.46825e-07
4.46818e-07
4.46802e-07
4.46779e-07
4.4677e-07
4.46856e-07
4.47304e-07
4.48842e-07
4.53331e-07
4.65421e-07
4.97272e-07
5.85964e-07
8.86482e-07
2.46621e-06
1.61237e-05
1.7058e-05
2.59939e-06
9.20669e-07
5.99601e-07
5.03811e-07
4.68694e-07
4.5494e-07
4.49592e-07
4.47626e-07
4.46974e-07
4.46798e-07
4.4677e-07
4.46779e-07
4.4679e-07
4.46796e-07
4.46796e-07
4.4679e-07
4.4678e-07
4.46771e-07
4.46799e-07
4.46975e-07
4.47626e-07
4.49593e-07
4.54941e-07
4.687e-07
5.03825e-07
5.99631e-07
9.20726e-07
2.59961e-06
1.7058e-05
1.84116e-05
2.79225e-06
9.69778e-07
6.19178e-07
5.13207e-07
4.73476e-07
4.57386e-07
4.50816e-07
4.48213e-07
4.47241e-07
4.46906e-07
4.46803e-07
4.46775e-07
4.4677e-07
4.46769e-07
4.46769e-07
4.4677e-07
4.46776e-07
4.46803e-07
4.46906e-07
4.4724e-07
4.48211e-07
4.50813e-07
4.57385e-07
4.7348e-07
5.13224e-07
6.19221e-07
9.69885e-07
2.79272e-06
1.84115e-05
2.02975e-05
3.06023e-06
1.03716e-06
6.45826e-07
5.25851e-07
4.80126e-07
4.61029e-07
4.52824e-07
4.49326e-07
4.47864e-07
4.47262e-07
4.47011e-07
4.46902e-07
4.46852e-07
4.46831e-07
4.46831e-07
4.46852e-07
4.46901e-07
4.4701e-07
4.4726e-07
4.4786e-07
4.4932e-07
4.52816e-07
4.61021e-07
4.80124e-07
5.25869e-07
6.45891e-07
1.03736e-06
3.06111e-06
2.02975e-05
2.28888e-05
3.42773e-06
1.12788e-06
6.8105e-07
5.41661e-07
4.89497e-07
4.66648e-07
4.56299e-07
4.51566e-07
4.49374e-07
4.48326e-07
4.47797e-07
4.47512e-07
4.47358e-07
4.47288e-07
4.47288e-07
4.47357e-07
4.4751e-07
4.47793e-07
4.4832e-07
4.49365e-07
4.51553e-07
4.56281e-07
4.66629e-07
4.89481e-07
5.41673e-07
6.81144e-07
1.12821e-06
3.4293e-06
2.28888e-05
2.64547e-05
3.93294e-06
1.25016e-06
7.28848e-07
5.66634e-07
5.03951e-07
4.75871e-07
4.6272e-07
4.56325e-07
4.53052e-07
4.51268e-07
4.50226e-07
4.49587e-07
4.49208e-07
4.49029e-07
4.49028e-07
4.49206e-07
4.49583e-07
4.50219e-07
4.51258e-07
4.53037e-07
4.56304e-07
4.62692e-07
4.75837e-07
5.03918e-07
5.6663e-07
7.28963e-07
1.25064e-06
3.93534e-06
2.64547e-05
3.14094e-05
4.6379e-06
1.41834e-06
7.9479e-07
6.02448e-07
5.26098e-07
4.91919e-07
4.75484e-07
4.66871e-07
4.61942e-07
4.58923e-07
4.56941e-07
4.55609e-07
4.54772e-07
4.54366e-07
4.54366e-07
4.54769e-07
4.55603e-07
4.56932e-07
4.58909e-07
4.61923e-07
4.66843e-07
4.75446e-07
4.91871e-07
5.26042e-07
6.02413e-07
7.94887e-07
1.41891e-06
4.64106e-06
3.14093e-05
3.84388e-05
5.66797e-06
1.66577e-06
8.91913e-07
6.5644e-07
5.64144e-07
5.23724e-07
5.03132e-07
4.91049e-07
4.8329e-07
4.78108e-07
4.74361e-07
4.71673e-07
4.69929e-07
4.69072e-07
4.69071e-07
4.69926e-07
4.71666e-07
4.74351e-07
4.78095e-07
4.83272e-07
4.91025e-07
5.03094e-07
5.23669e-07
5.64056e-07
6.56313e-07
8.91837e-07
1.66602e-06
5.67042e-06
3.84386e-05
4.90045e-05
7.30849e-06
2.08089e-06
1.05638e-06
7.57524e-07
6.4639e-07
5.96621e-07
5.68083e-07
5.48885e-07
5.3557e-07
5.26407e-07
5.18978e-07
5.13494e-07
5.09913e-07
5.08149e-07
5.08149e-07
5.09912e-07
5.13493e-07
5.18977e-07
5.26409e-07
5.35575e-07
5.48896e-07
5.68084e-07
5.96593e-07
6.46266e-07
7.572e-07
1.05581e-06
2.08003e-06
7.30821e-06
4.90041e-05
6.63142e-05
1.0301e-05
2.88067e-06
1.41466e-06
1.00906e-06
8.65868e-07
7.93308e-07
7.44634e-07
7.0802e-07
6.79726e-07
6.57905e-07
6.41236e-07
6.29219e-07
6.21446e-07
6.17635e-07
6.17639e-07
6.21458e-07
6.29241e-07
6.41277e-07
6.57975e-07
6.79841e-07
7.08186e-07
7.44836e-07
7.93488e-07
8.65807e-07
1.00838e-06
1.41303e-06
2.87772e-06
1.02959e-05
6.63156e-05
9.93624e-05
1.5294e-05
5.18411e-06
2.59686e-06
1.94129e-06
1.65722e-06
1.47761e-06
1.34499e-06
1.24287e-06
1.16379e-06
1.10313e-06
1.05774e-06
1.02545e-06
1.00475e-06
9.94649e-07
9.94669e-07
1.0048e-06
1.02555e-06
1.05792e-06
1.10346e-06
1.16432e-06
1.2436e-06
1.3459e-06
1.47859e-06
1.65757e-06
1.94001e-06
2.59226e-06
5.17585e-06
1.52893e-05
9.93661e-05
0.000150062
3.24202e-05
1.38243e-05
9.30472e-06
7.2187e-06
5.99938e-06
5.16096e-06
4.54481e-06
4.08054e-06
3.72944e-06
3.46515e-06
3.2712e-06
3.13509e-06
3.04868e-06
3.00675e-06
3.00681e-06
3.0489e-06
3.13552e-06
3.27195e-06
3.46676e-06
3.73192e-06
4.08414e-06
4.54918e-06
5.16563e-06
6.00192e-06
7.21407e-06
9.29389e-06
1.38025e-05
3.24034e-05
0.000150014
0.0015235
0.000224082
0.000110288
6.97382e-05
5.17682e-05
4.15181e-05
3.4815e-05
3.01572e-05
2.67911e-05
2.43036e-05
2.24613e-05
2.11236e-05
2.01914e-05
1.96012e-05
1.93149e-05
1.93149e-05
1.96012e-05
2.01914e-05
2.11236e-05
2.24614e-05
2.43037e-05
2.67912e-05
3.01571e-05
3.48145e-05
4.15173e-05
5.1768e-05
6.97438e-05
0.0001103
0.000224151
0.00152364
0.00108143
0.00016274
8.68583e-05
5.79294e-05
4.52221e-05
3.77653e-05
3.27326e-05
2.90956e-05
2.64316e-05
2.45376e-05
2.31311e-05
2.20965e-05
2.13671e-05
2.0901e-05
2.06736e-05
2.06736e-05
2.0901e-05
2.1367e-05
2.20963e-05
2.31307e-05
2.45369e-05
2.64304e-05
2.90937e-05
3.27293e-05
3.77611e-05
4.52186e-05
5.79341e-05
8.6872e-05
0.000162776
0.00108168
0.000101955
2.74657e-05
1.8809e-05
1.30921e-05
1.06459e-05
9.10951e-06
7.97895e-06
7.08126e-06
6.35545e-06
5.80011e-06
5.38969e-06
5.0931e-06
4.88902e-06
4.76077e-06
4.69879e-06
4.69882e-06
4.76101e-06
4.88965e-06
5.09416e-06
5.39149e-06
5.80329e-06
6.36046e-06
7.08878e-06
7.9865e-06
9.11422e-06
1.06468e-05
1.30774e-05
1.87818e-05
2.75008e-05
0.000101863
8.14655e-05
2.1486e-05
1.07499e-05
5.38346e-06
3.47163e-06
2.70319e-06
2.29408e-06
2.01771e-06
1.81011e-06
1.65348e-06
1.53768e-06
1.45541e-06
1.39951e-06
1.36468e-06
1.34794e-06
1.34797e-06
1.36476e-06
1.3997e-06
1.45573e-06
1.53824e-06
1.6544e-06
1.81157e-06
2.01973e-06
2.29606e-06
2.70358e-06
3.4675e-06
5.36958e-06
1.07265e-05
2.14729e-05
8.14496e-05
5.65306e-05
1.52428e-05
6.07774e-06
2.64333e-06
1.51653e-06
1.12837e-06
9.62672e-07
8.6857e-07
8.02958e-07
7.53629e-07
7.16394e-07
6.89565e-07
6.71108e-07
6.59526e-07
6.53939e-07
6.53947e-07
6.59557e-07
6.71166e-07
6.89665e-07
7.16556e-07
7.53876e-07
8.03314e-07
8.68982e-07
9.62879e-07
1.12775e-06
1.51394e-06
2.63661e-06
6.06558e-06
1.52336e-05
5.65265e-05
4.41462e-05
1.09202e-05
3.85066e-06
1.62725e-06
9.45841e-07
7.04651e-07
6.0511e-07
5.55622e-07
5.25664e-07
5.0373e-07
4.86394e-07
4.74453e-07
4.66277e-07
4.61131e-07
4.5864e-07
4.58644e-07
4.61143e-07
4.66299e-07
4.74487e-07
4.86442e-07
5.03792e-07
5.25734e-07
5.55664e-07
6.04988e-07
7.04161e-07
9.44706e-07
1.62505e-06
3.84751e-06
1.0921e-05
4.41414e-05
3.6333e-05
8.4091e-06
2.68809e-06
1.17501e-06
7.21448e-07
5.52708e-07
4.78347e-07
4.4229e-07
4.22443e-07
4.09777e-07
4.00765e-07
3.94406e-07
3.90066e-07
3.87345e-07
3.8603e-07
3.86032e-07
3.87351e-07
3.90076e-07
3.94418e-07
4.00778e-07
4.09788e-07
4.22443e-07
4.42253e-07
4.78234e-07
5.52489e-07
7.21056e-07
1.17459e-06
2.6885e-06
8.41416e-06
3.633e-05
3.08873e-05
6.80234e-06
2.06314e-06
9.40495e-07
6.08665e-07
4.80625e-07
4.22463e-07
3.93507e-07
3.78054e-07
3.69059e-07
3.63325e-07
3.59503e-07
3.56972e-07
3.55413e-07
3.54667e-07
3.54669e-07
3.55417e-07
3.56977e-07
3.59509e-07
3.63329e-07
3.69058e-07
3.78042e-07
3.93471e-07
4.22396e-07
4.80525e-07
6.08563e-07
9.40576e-07
2.06418e-06
6.80728e-06
3.08858e-05
2.7126e-05
5.74423e-06
1.703e-06
8.07828e-07
5.46044e-07
4.41546e-07
3.93619e-07
3.69555e-07
3.56868e-07
3.49862e-07
3.4577e-07
3.43261e-07
3.41699e-07
3.40775e-07
3.40342e-07
3.40343e-07
3.40777e-07
3.41703e-07
3.43265e-07
3.45773e-07
3.49861e-07
3.56859e-07
3.69535e-07
3.93583e-07
4.41501e-07
5.46036e-07
8.07989e-07
1.70384e-06
5.74772e-06
2.71253e-05
2.43695e-05
5.02837e-06
1.48087e-06
7.26325e-07
5.07045e-07
4.17947e-07
3.77094e-07
3.56679e-07
3.46072e-07
3.40429e-07
3.37346e-07
3.35608e-07
3.34609e-07
3.34053e-07
3.33802e-07
3.33803e-07
3.34055e-07
3.34612e-07
3.35612e-07
3.3735e-07
3.40431e-07
3.46069e-07
3.5667e-07
3.77078e-07
4.1793e-07
5.07056e-07
7.26453e-07
1.48142e-06
5.03046e-06
2.43693e-05
2.22984e-05
4.52282e-06
1.33581e-06
6.7257e-07
4.78356e-07
4.01968e-07
3.66701e-07
3.49202e-07
3.4027e-07
3.35674e-07
3.33296e-07
3.32054e-07
3.31399e-07
3.31062e-07
3.30918e-07
3.30919e-07
3.31064e-07
3.31402e-07
3.32057e-07
3.33299e-07
3.35676e-07
3.40271e-07
3.49199e-07
3.66695e-07
4.01961e-07
4.78366e-07
6.72657e-07
1.33612e-06
4.52399e-06
2.22983e-05
2.07422e-05
4.15924e-06
1.23616e-06
6.35882e-07
4.59786e-07
3.91112e-07
3.59849e-07
3.446e-07
3.36998e-07
3.33215e-07
3.31353e-07
3.30445e-07
3.30006e-07
3.29799e-07
3.29716e-07
3.29717e-07
3.298e-07
3.30008e-07
3.30448e-07
3.31355e-07
3.33217e-07
3.36999e-07
3.446e-07
3.59847e-07
3.91108e-07
4.5979e-07
6.35934e-07
1.23634e-06
4.15986e-06
2.07421e-05
1.95936e-05
3.89925e-06
1.16647e-06
6.10259e-07
4.46948e-07
3.83661e-07
3.55254e-07
3.41674e-07
3.35079e-07
3.31908e-07
3.30417e-07
3.29735e-07
3.29431e-07
3.293e-07
3.29252e-07
3.29253e-07
3.29301e-07
3.29432e-07
3.29737e-07
3.30419e-07
3.3191e-07
3.3508e-07
3.41674e-07
3.55251e-07
3.83654e-07
4.4694e-07
6.1028e-07
1.16656e-06
3.89956e-06
1.95936e-05
1.87834e-05
3.72027e-06
1.11891e-06
5.92112e-07
4.38058e-07
3.78599e-07
3.52208e-07
3.39815e-07
3.33939e-07
3.312e-07
3.29964e-07
3.29428e-07
3.29206e-07
3.29119e-07
3.29089e-07
3.2909e-07
3.2912e-07
3.29207e-07
3.29429e-07
3.29965e-07
3.31201e-07
3.33939e-07
3.39813e-07
3.52202e-07
3.78587e-07
4.3804e-07
5.92106e-07
1.11895e-06
3.72037e-06
1.87834e-05
1.82668e-05
3.60781e-06
1.08918e-06
5.80658e-07
4.32445e-07
3.75433e-07
3.50337e-07
3.38706e-07
3.33291e-07
3.30827e-07
3.29748e-07
3.29299e-07
3.29123e-07
3.29059e-07
3.29039e-07
3.2904e-07
3.2906e-07
3.29124e-07
3.293e-07
3.29749e-07
3.30826e-07
3.3329e-07
3.38702e-07
3.50328e-07
3.75418e-07
4.32422e-07
5.80646e-07
1.0892e-06
3.60785e-06
1.82669e-05
1.80146e-05
3.55345e-06
1.07486e-06
5.75123e-07
4.29728e-07
3.73907e-07
3.49444e-07
3.38187e-07
3.32997e-07
3.30664e-07
3.29661e-07
3.29252e-07
3.29097e-07
3.29043e-07
3.29027e-07
3.29027e-07
3.29044e-07
3.29098e-07
3.29253e-07
3.29661e-07
3.30664e-07
3.32994e-07
3.38181e-07
3.49434e-07
3.7389e-07
4.29702e-07
5.75109e-07
1.07488e-06
3.55348e-06
1.80146e-05
1.80147e-05
3.55342e-06
1.07486e-06
5.75122e-07
4.29729e-07
3.73909e-07
3.49446e-07
3.38189e-07
3.32998e-07
3.30665e-07
3.29661e-07
3.29253e-07
3.29098e-07
3.29043e-07
3.29028e-07
3.29028e-07
3.29044e-07
3.29098e-07
3.29253e-07
3.29661e-07
3.30664e-07
3.32994e-07
3.38181e-07
3.49434e-07
3.7389e-07
4.29702e-07
5.75108e-07
1.07488e-06
3.55347e-06
1.80147e-05
1.82671e-05
3.60774e-06
1.08918e-06
5.80657e-07
4.3245e-07
3.75439e-07
3.50343e-07
3.38711e-07
3.33295e-07
3.3083e-07
3.2975e-07
3.29301e-07
3.29125e-07
3.2906e-07
3.29041e-07
3.29041e-07
3.29061e-07
3.29125e-07
3.29301e-07
3.29749e-07
3.30827e-07
3.3329e-07
3.38702e-07
3.50328e-07
3.75417e-07
4.3242e-07
5.8064e-07
1.08919e-06
3.60777e-06
1.82671e-05
1.87838e-05
3.72018e-06
1.11891e-06
5.92109e-07
4.38067e-07
3.78611e-07
3.52219e-07
3.39824e-07
3.33946e-07
3.31205e-07
3.29968e-07
3.29431e-07
3.29208e-07
3.29121e-07
3.29091e-07
3.29091e-07
3.29121e-07
3.29208e-07
3.2943e-07
3.29966e-07
3.31202e-07
3.33939e-07
3.39812e-07
3.52201e-07
3.78585e-07
4.38034e-07
5.92089e-07
1.11891e-06
3.72013e-06
1.87839e-05
1.95943e-05
3.89915e-06
1.16649e-06
6.10261e-07
4.46966e-07
3.83682e-07
3.55271e-07
3.41687e-07
3.35088e-07
3.31914e-07
3.30422e-07
3.29738e-07
3.29433e-07
3.29302e-07
3.29253e-07
3.29253e-07
3.29302e-07
3.29433e-07
3.29737e-07
3.3042e-07
3.3191e-07
3.3508e-07
3.41673e-07
3.55249e-07
3.8365e-07
4.46928e-07
6.10236e-07
1.16647e-06
3.89901e-06
1.95944e-05
2.07433e-05
4.15905e-06
1.23618e-06
6.35911e-07
4.59823e-07
3.91143e-07
3.59872e-07
3.44616e-07
3.37008e-07
3.33222e-07
3.31357e-07
3.30447e-07
3.30007e-07
3.29799e-07
3.29716e-07
3.29716e-07
3.29799e-07
3.30006e-07
3.30446e-07
3.31354e-07
3.33216e-07
3.36999e-07
3.446e-07
3.59847e-07
3.91106e-07
4.59779e-07
6.35882e-07
1.23615e-06
4.15885e-06
2.07433e-05
2.23002e-05
4.52251e-06
1.33583e-06
6.72629e-07
4.78411e-07
4.02006e-07
3.66725e-07
3.49218e-07
3.4028e-07
3.35679e-07
3.33298e-07
3.32053e-07
3.31397e-07
3.31059e-07
3.30914e-07
3.30914e-07
3.31058e-07
3.31396e-07
3.32051e-07
3.33294e-07
3.35673e-07
3.4027e-07
3.49203e-07
3.66702e-07
4.01971e-07
4.78368e-07
6.72595e-07
1.33576e-06
4.52215e-06
2.23003e-05
2.43725e-05
5.02794e-06
1.48089e-06
7.26405e-07
5.07121e-07
4.17991e-07
3.77116e-07
3.5669e-07
3.46075e-07
3.40428e-07
3.37342e-07
3.35601e-07
3.346e-07
3.34043e-07
3.33792e-07
3.33791e-07
3.34042e-07
3.34598e-07
3.35598e-07
3.37337e-07
3.40422e-07
3.46067e-07
3.56677e-07
3.77097e-07
4.1796e-07
5.07079e-07
7.26342e-07
1.48069e-06
5.02703e-06
2.43727e-05
2.71308e-05
5.74349e-06
1.70281e-06
8.0787e-07
5.46181e-07
4.41599e-07
3.93635e-07
3.69554e-07
3.56857e-07
3.49846e-07
3.45752e-07
3.43242e-07
3.41679e-07
3.40754e-07
3.40321e-07
3.40321e-07
3.40753e-07
3.41676e-07
3.43238e-07
3.45747e-07
3.49841e-07
3.5685e-07
3.69545e-07
3.93621e-07
4.41575e-07
5.46137e-07
8.07763e-07
1.70237e-06
5.74141e-06
2.71313e-05
3.08931e-05
6.80097e-06
2.06225e-06
9.40341e-07
6.09283e-07
4.80727e-07
4.22475e-07
3.93485e-07
3.78019e-07
3.69018e-07
3.63283e-07
3.59462e-07
3.56933e-07
3.55375e-07
3.54629e-07
3.54628e-07
3.55372e-07
3.56929e-07
3.59457e-07
3.63276e-07
3.69011e-07
3.78011e-07
3.93474e-07
4.22457e-07
4.80717e-07
6.09264e-07
9.40235e-07
2.0615e-06
6.79703e-06
3.08943e-05
3.63414e-05
8.40625e-06
2.6853e-06
1.17404e-06
7.21205e-07
5.52662e-07
4.78327e-07
4.42229e-07
4.22372e-07
4.09699e-07
4.00688e-07
3.94333e-07
3.89998e-07
3.87279e-07
3.85964e-07
3.85962e-07
3.87274e-07
3.89991e-07
3.94323e-07
4.00674e-07
4.09681e-07
4.22351e-07
4.42206e-07
4.783e-07
5.52671e-07
7.21353e-07
1.1743e-06
2.68485e-06
8.40098e-06
3.63435e-05
4.41607e-05
1.0913e-05
3.8442e-06
1.62497e-06
9.45164e-07
7.04506e-07
6.05087e-07
5.55549e-07
5.25592e-07
5.03627e-07
4.86293e-07
4.74354e-07
4.66181e-07
4.61035e-07
4.58542e-07
4.58538e-07
4.61025e-07
4.66163e-07
4.74327e-07
4.86253e-07
5.03573e-07
5.25512e-07
5.55468e-07
6.04997e-07
7.04599e-07
9.45875e-07
1.62673e-06
3.8464e-06
1.09077e-05
4.41642e-05
5.65596e-05
1.52343e-05
6.06659e-06
2.63824e-06
1.51537e-06
1.12854e-06
9.63092e-07
8.68921e-07
8.03156e-07
7.53698e-07
7.16384e-07
6.89512e-07
6.71029e-07
6.59435e-07
6.53835e-07
6.53828e-07
6.59411e-07
6.70983e-07
6.89434e-07
7.16258e-07
7.53492e-07
8.02836e-07
8.68461e-07
9.62591e-07
1.12852e-06
1.5173e-06
2.64451e-06
6.07759e-06
1.52327e-05
5.65592e-05
8.16143e-05
2.15147e-05
1.07363e-05
5.37493e-06
3.47162e-06
2.706e-06
2.29705e-06
2.01989e-06
1.81164e-06
1.6544e-06
1.53817e-06
1.45566e-06
1.39961e-06
1.36472e-06
1.34793e-06
1.34792e-06
1.36466e-06
1.39951e-06
1.45545e-06
1.53781e-06
1.65374e-06
1.8105e-06
2.01802e-06
2.29449e-06
2.70381e-06
3.47463e-06
5.39044e-06
1.07604e-05
2.15287e-05
8.16156e-05
0.000101913
2.74717e-05
1.875e-05
1.3076e-05
1.0647e-05
9.11566e-06
7.98619e-06
7.08687e-06
6.3607e-06
5.80349e-06
5.3915e-06
5.09411e-06
4.88972e-06
4.76116e-06
4.69907e-06
4.69906e-06
4.76107e-06
4.88941e-06
5.09363e-06
5.39037e-06
5.80149e-06
6.35707e-06
7.08055e-06
7.97732e-06
9.10649e-06
1.06503e-05
1.31014e-05
1.8775e-05
2.74334e-05
0.000102062
0.00108132
0.000162712
8.67868e-05
5.78854e-05
4.51844e-05
3.77392e-05
3.2715e-05
2.90843e-05
2.64348e-05
2.45294e-05
2.31237e-05
2.20905e-05
2.1362e-05
2.08964e-05
2.06693e-05
2.06693e-05
2.08964e-05
2.1362e-05
2.20905e-05
2.31238e-05
2.45296e-05
2.64355e-05
2.90859e-05
3.27188e-05
3.7747e-05
4.51975e-05
5.78968e-05
8.6791e-05
0.000162704
0.00108126
0.000910157
0.00013458
7.38169e-05
4.97522e-05
3.93608e-05
3.31963e-05
2.90745e-05
2.62055e-05
2.4098e-05
2.24897e-05
2.12879e-05
2.04041e-05
1.9781e-05
1.93831e-05
1.91892e-05
1.91891e-05
1.93831e-05
1.9781e-05
2.0404e-05
2.12876e-05
2.24895e-05
2.40981e-05
2.62059e-05
2.90753e-05
3.3199e-05
3.93692e-05
4.97644e-05
7.38313e-05
0.000134537
0.00091019
8.74594e-05
2.72802e-05
2.04809e-05
1.48512e-05
1.26624e-05
1.12288e-05
1.00688e-05
9.086e-06
8.25843e-06
7.5834e-06
7.05582e-06
6.66277e-06
6.38548e-06
6.20931e-06
6.12389e-06
6.12389e-06
6.2093e-06
6.38545e-06
6.66281e-06
7.05559e-06
7.58263e-06
8.25677e-06
9.08324e-06
1.00647e-05
1.12228e-05
1.26552e-05
1.48581e-05
2.04993e-05
2.72589e-05
8.75645e-05
7.2267e-05
2.26002e-05
1.31249e-05
7.50198e-06
4.89118e-06
3.75613e-06
3.1583e-06
2.76338e-06
2.46413e-06
2.23162e-06
2.05626e-06
1.9271e-06
1.8373e-06
1.78132e-06
1.75458e-06
1.75458e-06
1.78131e-06
1.83727e-06
1.92708e-06
2.05617e-06
2.23133e-06
2.46343e-06
2.76227e-06
3.15672e-06
3.75446e-06
4.8907e-06
7.50704e-06
1.31372e-05
2.26126e-05
7.22728e-05
4.92069e-05
1.70198e-05
8.44852e-06
3.94045e-06
2.10377e-06
1.42516e-06
1.15202e-06
1.01107e-06
9.18313e-07
8.49548e-07
7.97924e-07
7.59823e-07
7.33156e-07
7.1642e-07
7.0839e-07
7.08386e-07
7.16406e-07
7.33135e-07
7.5979e-07
7.9786e-07
8.49412e-07
9.18083e-07
1.01071e-06
1.15159e-06
1.42485e-06
2.10443e-06
3.94391e-06
8.45612e-06
1.70267e-05
4.92084e-05
3.86501e-05
1.28938e-05
5.48665e-06
2.29258e-06
1.15875e-06
7.65626e-07
6.16041e-07
5.47282e-07
5.08756e-07
4.82672e-07
4.635e-07
4.49415e-07
4.39493e-07
4.33194e-07
4.30142e-07
4.30139e-07
4.33183e-07
4.39475e-07
4.49384e-07
4.6345e-07
4.82591e-07
5.08645e-07
5.47147e-07
6.15853e-07
7.65465e-07
1.15896e-06
2.29372e-06
5.48869e-06
1.2893e-05
3.86542e-05
3.21988e-05
1.02871e-05
3.77446e-06
1.50698e-06
7.9175e-07
5.42545e-07
4.42875e-07
3.9769e-07
3.74236e-07
3.60071e-07
3.50456e-07
3.43642e-07
3.38905e-07
3.359e-07
3.3444e-07
3.34438e-07
3.35892e-07
3.3889e-07
3.43618e-07
3.50419e-07
3.60014e-07
3.74154e-07
3.97575e-07
4.42717e-07
5.42371e-07
7.91641e-07
1.50707e-06
3.7746e-06
1.02862e-05
3.22002e-05
2.79254e-05
8.45644e-06
2.80659e-06
1.11825e-06
6.2293e-07
4.4618e-07
3.72318e-07
3.37639e-07
3.19859e-07
3.09841e-07
3.03632e-07
2.99531e-07
2.968e-07
2.95105e-07
2.94289e-07
2.94287e-07
2.951e-07
2.9679e-07
2.99515e-07
3.03607e-07
3.09802e-07
3.19797e-07
3.37542e-07
3.72181e-07
4.46018e-07
6.22746e-07
1.11813e-06
2.8064e-06
8.45548e-06
2.79264e-05
2.47827e-05
7.14721e-06
2.23327e-06
9.07645e-07
5.30768e-07
3.95912e-07
3.37522e-07
3.09213e-07
2.94531e-07
2.86477e-07
2.81789e-07
2.78914e-07
2.77116e-07
2.76046e-07
2.75542e-07
2.75542e-07
2.76043e-07
2.7711e-07
2.78905e-07
2.81773e-07
2.86451e-07
2.94488e-07
3.09143e-07
3.37415e-07
3.95772e-07
5.30619e-07
9.07594e-07
2.23327e-06
7.1469e-06
2.47834e-05
2.24501e-05
6.2018e-06
1.87389e-06
7.82769e-07
4.76997e-07
3.66597e-07
3.18033e-07
2.94093e-07
2.81563e-07
2.74764e-07
2.70956e-07
2.68758e-07
2.6747e-07
2.66744e-07
2.66414e-07
2.66413e-07
2.66742e-07
2.67467e-07
2.68752e-07
2.70947e-07
2.74748e-07
2.81536e-07
2.94048e-07
3.17962e-07
3.665e-07
4.76911e-07
7.82768e-07
1.874e-06
6.20197e-06
2.24505e-05
2.06993e-05
5.52416e-06
1.63481e-06
7.0261e-07
4.42523e-07
3.47999e-07
3.06098e-07
2.85328e-07
2.74448e-07
2.68603e-07
2.6542e-07
2.63668e-07
2.62701e-07
2.62187e-07
2.61963e-07
2.61962e-07
2.62186e-07
2.62699e-07
2.63665e-07
2.65414e-07
2.68594e-07
2.74431e-07
2.853e-07
3.06055e-07
3.47941e-07
4.42466e-07
7.02617e-07
1.63494e-06
5.52433e-06
2.06996e-05
1.93843e-05
5.03986e-06
1.47384e-06
6.50351e-07
4.19764e-07
3.35679e-07
2.98368e-07
2.79921e-07
2.70326e-07
2.65243e-07
2.62545e-07
2.61119e-07
2.60374e-07
2.59999e-07
2.59842e-07
2.59842e-07
2.59998e-07
2.60372e-07
2.61116e-07
2.62541e-07
2.65236e-07
2.70315e-07
2.79904e-07
2.98342e-07
3.35643e-07
4.19725e-07
6.50351e-07
1.47395e-06
5.04002e-06
1.93846e-05
1.84131e-05
4.6981e-06
1.36506e-06
6.14621e-07
4.04302e-07
3.27338e-07
2.93223e-07
2.76464e-07
2.67845e-07
2.63357e-07
2.61036e-07
2.59852e-07
2.59262e-07
2.58981e-07
2.58868e-07
2.58868e-07
2.5898e-07
2.5926e-07
2.59849e-07
2.61031e-07
2.63351e-07
2.67836e-07
2.76451e-07
2.93204e-07
3.27311e-07
4.04267e-07
6.14602e-07
1.36514e-06
4.69827e-06
1.84133e-05
1.77256e-05
4.46378e-06
1.29323e-06
5.90994e-07
3.93991e-07
3.21771e-07
2.8983e-07
2.74252e-07
2.66337e-07
2.62287e-07
2.6024e-07
2.5923e-07
2.58746e-07
2.58525e-07
2.58441e-07
2.5844e-07
2.58524e-07
2.58743e-07
2.59226e-07
2.60235e-07
2.62281e-07
2.66329e-07
2.74241e-07
2.89814e-07
3.21748e-07
3.93956e-07
5.90966e-07
1.2933e-06
4.46387e-06
1.77258e-05
1.72853e-05
4.31713e-06
1.24924e-06
5.76428e-07
3.87612e-07
3.18328e-07
2.87749e-07
2.72923e-07
2.65464e-07
2.617e-07
2.59834e-07
2.58934e-07
2.58516e-07
2.58332e-07
2.58263e-07
2.58262e-07
2.5833e-07
2.58513e-07
2.5893e-07
2.59829e-07
2.61694e-07
2.65456e-07
2.72913e-07
2.87734e-07
3.18306e-07
3.87579e-07
5.76401e-07
1.24931e-06
4.31723e-06
1.72854e-05
1.70709e-05
4.24649e-06
1.22832e-06
5.69526e-07
3.84561e-07
3.16676e-07
2.86754e-07
2.72295e-07
2.65061e-07
2.61439e-07
2.59661e-07
2.58815e-07
2.58428e-07
2.58261e-07
2.582e-07
2.58199e-07
2.5826e-07
2.58426e-07
2.58811e-07
2.59656e-07
2.61433e-07
2.65054e-07
2.72286e-07
2.86741e-07
3.16657e-07
3.8453e-07
5.69501e-07
1.22839e-06
4.24663e-06
1.70711e-05
1.70713e-05
4.24637e-06
1.22826e-06
5.69502e-07
3.8455e-07
3.16669e-07
2.86749e-07
2.72292e-07
2.65059e-07
2.61438e-07
2.5966e-07
2.58814e-07
2.58428e-07
2.58261e-07
2.582e-07
2.58199e-07
2.58259e-07
2.58425e-07
2.58811e-07
2.59655e-07
2.61432e-07
2.65052e-07
2.72284e-07
2.86737e-07
3.16651e-07
3.84521e-07
5.69478e-07
1.22834e-06
4.24654e-06
1.70715e-05
1.72865e-05
4.31675e-06
1.24906e-06
5.76353e-07
3.87575e-07
3.18305e-07
2.87734e-07
2.72913e-07
2.65458e-07
2.61697e-07
2.59831e-07
2.58932e-07
2.58514e-07
2.5833e-07
2.58262e-07
2.58261e-07
2.58329e-07
2.58512e-07
2.58928e-07
2.59826e-07
2.61691e-07
2.65452e-07
2.72906e-07
2.87724e-07
3.18289e-07
3.87546e-07
5.76327e-07
1.24913e-06
4.31691e-06
1.72866e-05
1.77278e-05
4.46314e-06
1.29289e-06
5.90851e-07
3.93923e-07
3.21731e-07
2.89804e-07
2.74235e-07
2.66326e-07
2.6228e-07
2.60236e-07
2.59227e-07
2.58744e-07
2.58524e-07
2.58439e-07
2.58438e-07
2.58522e-07
2.58741e-07
2.59224e-07
2.60232e-07
2.62275e-07
2.66321e-07
2.74229e-07
2.89796e-07
3.21716e-07
3.93894e-07
5.9082e-07
1.29294e-06
4.46322e-06
1.77279e-05
1.84166e-05
4.69717e-06
1.3645e-06
6.14393e-07
4.04197e-07
3.27278e-07
2.93184e-07
2.76438e-07
2.67829e-07
2.63348e-07
2.61031e-07
2.5985e-07
2.5926e-07
2.58979e-07
2.58867e-07
2.58866e-07
2.58978e-07
2.59258e-07
2.59846e-07
2.61027e-07
2.63345e-07
2.67826e-07
2.76434e-07
2.93176e-07
3.2726e-07
4.04164e-07
6.14355e-07
1.36452e-06
4.69713e-06
1.84168e-05
1.93897e-05
5.03847e-06
1.47295e-06
6.50037e-07
4.19607e-07
3.35589e-07
2.98309e-07
2.79883e-07
2.70304e-07
2.65231e-07
2.6254e-07
2.61117e-07
2.60373e-07
2.59999e-07
2.59842e-07
2.59842e-07
2.59998e-07
2.60371e-07
2.61115e-07
2.62537e-07
2.6523e-07
2.70303e-07
2.79882e-07
2.98301e-07
3.35566e-07
4.19566e-07
6.49995e-07
1.47296e-06
5.03833e-06
1.93898e-05
2.07073e-05
5.52213e-06
1.63332e-06
7.02033e-07
4.42251e-07
3.47846e-07
3.06002e-07
2.8527e-07
2.74417e-07
2.68589e-07
2.65416e-07
2.63669e-07
2.62705e-07
2.62192e-07
2.61968e-07
2.61968e-07
2.62191e-07
2.62704e-07
2.63668e-07
2.65416e-07
2.6859e-07
2.74419e-07
2.85272e-07
3.05995e-07
3.47817e-07
4.42199e-07
7.01993e-07
1.63334e-06
5.52198e-06
2.07075e-05
2.24622e-05
6.19905e-06
1.87132e-06
7.81687e-07
4.76485e-07
3.66316e-07
3.17872e-07
2.94005e-07
2.81521e-07
2.74749e-07
2.70957e-07
2.68766e-07
2.67482e-07
2.66758e-07
2.66429e-07
2.66429e-07
2.66758e-07
2.67483e-07
2.68767e-07
2.70959e-07