/*--------------------------------*- C++ -*----------------------------------*\
| =========                 |                                                 |
| \\      /  F ield         | OpenFOAM: The Open Source CFD Toolbox           |
|  \\    /   O peration     | Version:  2312                                  |
|   \\  /    A nd           | Website:  www.openfoam.com                      |
|    \\/     M anipulation  |                                                 |
\*---------------------------------------------------------------------------*/
FoamFile
{
    version     2.0;
    format      ascii;
    arch        "LSB;label=32;scalar=64";
    class       volScalarField;
    location    "50";
    object      k;
}
// * * * * * * * * * * * * * * * * * * * * * * * * * * * * * * * * * * * * * //

dimensions      [0 2 -2 0 0 0 0];

internalField   nonuniform List<scalar> 
27000
(
0.000258892
0.000129353
0.000107159
9.53809e-05
8.989e-05
8.64573e-05
8.38183e-05
8.14901e-05
7.95333e-05
7.78906e-05
7.65208e-05
7.54472e-05
7.46562e-05
7.41355e-05
7.38771e-05
7.38772e-05
7.41356e-05
7.46563e-05
7.54475e-05
7.65212e-05
7.78912e-05
7.9534e-05
8.14909e-05
8.38195e-05
8.64584e-05
8.98907e-05
9.53798e-05
0.000107155
0.000129362
0.000258868
9.79493e-05
2.13684e-05
2.79965e-05
3.04978e-05
3.23892e-05
3.36575e-05
3.44597e-05
3.49277e-05
3.51835e-05
3.53283e-05
3.54118e-05
3.54646e-05
3.54991e-05
3.55203e-05
3.55303e-05
3.55304e-05
3.55204e-05
3.54993e-05
3.54649e-05
3.54122e-05
3.53287e-05
3.51838e-05
3.49276e-05
3.44594e-05
3.36557e-05
3.23884e-05
3.05001e-05
2.79903e-05
2.13809e-05
9.79312e-05
0.000100943
3.47035e-05
2.88755e-05
2.73279e-05
2.80354e-05
2.90682e-05
2.99375e-05
3.06026e-05
3.11012e-05
3.14755e-05
3.17566e-05
3.1964e-05
3.21104e-05
3.22041e-05
3.22498e-05
3.22499e-05
3.22043e-05
3.21108e-05
3.19646e-05
3.17575e-05
3.14766e-05
3.11024e-05
3.06036e-05
2.9938e-05
2.9068e-05
2.80342e-05
2.7327e-05
2.88748e-05
3.47032e-05
0.000100939
9.46541e-05
3.50661e-05
2.87282e-05
2.859e-05
2.93934e-05
3.02147e-05
3.09036e-05
3.1444e-05
3.18564e-05
3.21673e-05
3.24001e-05
3.25718e-05
3.26927e-05
3.27698e-05
3.28074e-05
3.28074e-05
3.277e-05
3.2693e-05
3.25722e-05
3.24006e-05
3.21679e-05
3.1857e-05
3.14445e-05
3.09038e-05
3.02146e-05
2.93928e-05
2.85891e-05
2.87278e-05
3.50659e-05
9.46497e-05
9.01551e-05
3.41903e-05
2.90198e-05
2.96921e-05
3.0644e-05
3.13852e-05
3.19504e-05
3.23792e-05
3.27e-05
3.29366e-05
3.31091e-05
3.32341e-05
3.3321e-05
3.33759e-05
3.34025e-05
3.34025e-05
3.3376e-05
3.33211e-05
3.32343e-05
3.31093e-05
3.29368e-05
3.27002e-05
3.23793e-05
3.19503e-05
3.13848e-05
3.06434e-05
2.96913e-05
2.9019e-05
3.41898e-05
9.01551e-05
8.64368e-05
3.40466e-05
2.96027e-05
3.05061e-05
3.14867e-05
3.21871e-05
3.26795e-05
3.30299e-05
3.32795e-05
3.3456e-05
3.35797e-05
3.36655e-05
3.37232e-05
3.37589e-05
3.37759e-05
3.37759e-05
3.37589e-05
3.37232e-05
3.36655e-05
3.35797e-05
3.3456e-05
3.32794e-05
3.30298e-05
3.26792e-05
3.21867e-05
3.14861e-05
3.05055e-05
2.96024e-05
3.40459e-05
8.64368e-05
8.31941e-05
3.4139e-05
3.0329e-05
3.11913e-05
3.20977e-05
3.27343e-05
3.31648e-05
3.34535e-05
3.36461e-05
3.37735e-05
3.3857e-05
3.39112e-05
3.39455e-05
3.39658e-05
3.39752e-05
3.39752e-05
3.39658e-05
3.39455e-05
3.39111e-05
3.38569e-05
3.37734e-05
3.36459e-05
3.34532e-05
3.31644e-05
3.27338e-05
3.20972e-05
3.11909e-05
3.03291e-05
3.41385e-05
8.3194e-05
8.02793e-05
3.42843e-05
3.09604e-05
3.17508e-05
3.256e-05
3.31187e-05
3.34856e-05
3.37193e-05
3.38641e-05
3.39517e-05
3.40033e-05
3.40331e-05
3.40499e-05
3.40588e-05
3.40627e-05
3.40627e-05
3.40588e-05
3.40498e-05
3.4033e-05
3.40032e-05
3.39515e-05
3.38639e-05
3.3719e-05
3.34852e-05
3.31183e-05
3.25596e-05
3.17506e-05
3.09608e-05
3.42843e-05
8.02792e-05
7.76976e-05
3.44179e-05
3.14638e-05
3.21848e-05
3.29045e-05
3.33896e-05
3.36964e-05
3.38808e-05
3.39856e-05
3.40415e-05
3.40691e-05
3.40814e-05
3.40862e-05
3.40876e-05
3.40879e-05
3.40879e-05
3.40876e-05
3.40861e-05
3.40813e-05
3.4069e-05
3.40413e-05
3.39854e-05
3.38805e-05
3.36961e-05
3.33892e-05
3.29041e-05
3.21847e-05
3.14642e-05
3.4418e-05
7.76975e-05
7.55211e-05
3.45286e-05
3.18504e-05
3.25103e-05
3.31537e-05
3.35773e-05
3.38327e-05
3.39756e-05
3.40482e-05
3.40802e-05
3.40908e-05
3.40916e-05
3.40889e-05
3.4086e-05
3.40843e-05
3.40843e-05
3.4086e-05
3.40889e-05
3.40915e-05
3.40907e-05
3.408e-05
3.4048e-05
3.39753e-05
3.38324e-05
3.35769e-05
3.31534e-05
3.25102e-05
3.18507e-05
3.45287e-05
7.55211e-05
7.37428e-05
3.46137e-05
3.21396e-05
3.27517e-05
3.33341e-05
3.37061e-05
3.39193e-05
3.40292e-05
3.40773e-05
3.40923e-05
3.40918e-05
3.40857e-05
3.40792e-05
3.40742e-05
3.40716e-05
3.40716e-05
3.40742e-05
3.40791e-05
3.40857e-05
3.40916e-05
3.40921e-05
3.40771e-05
3.40289e-05
3.3919e-05
3.37058e-05
3.33339e-05
3.27516e-05
3.21398e-05
3.46138e-05
7.37427e-05
7.23478e-05
3.46744e-05
3.23507e-05
3.29262e-05
3.34618e-05
3.37932e-05
3.39735e-05
3.40584e-05
3.40889e-05
3.40925e-05
3.40853e-05
3.40756e-05
3.40673e-05
3.40616e-05
3.40588e-05
3.40588e-05
3.40616e-05
3.40672e-05
3.40755e-05
3.40851e-05
3.40923e-05
3.40887e-05
3.40581e-05
3.39733e-05
3.37929e-05
3.34615e-05
3.2926e-05
3.23506e-05
3.46745e-05
7.23478e-05
7.13197e-05
3.47175e-05
3.24982e-05
3.30467e-05
3.35482e-05
3.38499e-05
3.40064e-05
3.40736e-05
3.40923e-05
3.40887e-05
3.40778e-05
3.40665e-05
3.40577e-05
3.40521e-05
3.40493e-05
3.40493e-05
3.4052e-05
3.40577e-05
3.40664e-05
3.40777e-05
3.40886e-05
3.40921e-05
3.40734e-05
3.40062e-05
3.38497e-05
3.35479e-05
3.30465e-05
3.24981e-05
3.47175e-05
7.13196e-05
7.06428e-05
3.47447e-05
3.25917e-05
3.31223e-05
3.36015e-05
3.38839e-05
3.4025e-05
3.4081e-05
3.40925e-05
3.40849e-05
3.40721e-05
3.40602e-05
3.40515e-05
3.40461e-05
3.40435e-05
3.40435e-05
3.4046e-05
3.40514e-05
3.40601e-05
3.4072e-05
3.40848e-05
3.40923e-05
3.40808e-05
3.40247e-05
3.38836e-05
3.36013e-05
3.31221e-05
3.25915e-05
3.47447e-05
7.06427e-05
7.03074e-05
3.47577e-05
3.26369e-05
3.31587e-05
3.36269e-05
3.38997e-05
3.40332e-05
3.40839e-05
3.4092e-05
3.40827e-05
3.40691e-05
3.40571e-05
3.40485e-05
3.40433e-05
3.40408e-05
3.40408e-05
3.40432e-05
3.40485e-05
3.40571e-05
3.4069e-05
3.40826e-05
3.40919e-05
3.40837e-05
3.4033e-05
3.38995e-05
3.36266e-05
3.31584e-05
3.26368e-05
3.47577e-05
7.03073e-05
7.03072e-05
3.47576e-05
3.26368e-05
3.31585e-05
3.36267e-05
3.38995e-05
3.40331e-05
3.40838e-05
3.4092e-05
3.40827e-05
3.40691e-05
3.40571e-05
3.40485e-05
3.40432e-05
3.40408e-05
3.40408e-05
3.40432e-05
3.40485e-05
3.4057e-05
3.4069e-05
3.40825e-05
3.40918e-05
3.40836e-05
3.40329e-05
3.38993e-05
3.36265e-05
3.31582e-05
3.26366e-05
3.47576e-05
7.03071e-05
7.06422e-05
3.47444e-05
3.25912e-05
3.31218e-05
3.3601e-05
3.38834e-05
3.40246e-05
3.40807e-05
3.40923e-05
3.40848e-05
3.4072e-05
3.40601e-05
3.40514e-05
3.4046e-05
3.40435e-05
3.40435e-05
3.4046e-05
3.40514e-05
3.40601e-05
3.40719e-05
3.40847e-05
3.40921e-05
3.40805e-05
3.40244e-05
3.38832e-05
3.36008e-05
3.31215e-05
3.2591e-05
3.47444e-05
7.06421e-05
7.13186e-05
3.4717e-05
3.24974e-05
3.30458e-05
3.35473e-05
3.38491e-05
3.40058e-05
3.40731e-05
3.40919e-05
3.40885e-05
3.40776e-05
3.40664e-05
3.40576e-05
3.4052e-05
3.40493e-05
3.40493e-05
3.4052e-05
3.40576e-05
3.40663e-05
3.40775e-05
3.40884e-05
3.40918e-05
3.40729e-05
3.40056e-05
3.38489e-05
3.3547e-05
3.30455e-05
3.24971e-05
3.4717e-05
7.13185e-05
7.23462e-05
3.46738e-05
3.23496e-05
3.29249e-05
3.34606e-05
3.37921e-05
3.39727e-05
3.40577e-05
3.40884e-05
3.40922e-05
3.40851e-05
3.40755e-05
3.40672e-05
3.40616e-05
3.40588e-05
3.40588e-05
3.40616e-05
3.40672e-05
3.40754e-05
3.4085e-05
3.40921e-05
3.40883e-05
3.40576e-05
3.39725e-05
3.37919e-05
3.34603e-05
3.29246e-05
3.23493e-05
3.46737e-05
7.2346e-05
7.37403e-05
3.46129e-05
3.21384e-05
3.27502e-05
3.33327e-05
3.37048e-05
3.39183e-05
3.40284e-05
3.40768e-05
3.4092e-05
3.40916e-05
3.40857e-05
3.40792e-05
3.40743e-05
3.40717e-05
3.40717e-05
3.40743e-05
3.40792e-05
3.40856e-05
3.40915e-05
3.40919e-05
3.40767e-05
3.40283e-05
3.39182e-05
3.37046e-05
3.33324e-05
3.27499e-05
3.21379e-05
3.46129e-05
7.37403e-05
7.55177e-05
3.45277e-05
3.18492e-05
3.25088e-05
3.31522e-05
3.3576e-05
3.38316e-05
3.39748e-05
3.40477e-05
3.40799e-05
3.40907e-05
3.40917e-05
3.40891e-05
3.40863e-05
3.40846e-05
3.40846e-05
3.40863e-05
3.40891e-05
3.40916e-05
3.40907e-05
3.40799e-05
3.40476e-05
3.39747e-05
3.38315e-05
3.35758e-05
3.3152e-05
3.25083e-05
3.18485e-05
3.45277e-05
7.55177e-05
7.76928e-05
3.44169e-05
3.1463e-05
3.21835e-05
3.29032e-05
3.33885e-05
3.36955e-05
3.38801e-05
3.39852e-05
3.40414e-05
3.40692e-05
3.40817e-05
3.40866e-05
3.40881e-05
3.40884e-05
3.40884e-05
3.40881e-05
3.40866e-05
3.40817e-05
3.40692e-05
3.40414e-05
3.39852e-05
3.38801e-05
3.36955e-05
3.33884e-05
3.2903e-05
3.21831e-05
3.14621e-05
3.44171e-05
7.7693e-05
8.0273e-05
3.42834e-05
3.09606e-05
3.17504e-05
3.25593e-05
3.3118e-05
3.3485e-05
3.37189e-05
3.3864e-05
3.39518e-05
3.40037e-05
3.40337e-05
3.40507e-05
3.40597e-05
3.40636e-05
3.40636e-05
3.40597e-05
3.40506e-05
3.40337e-05
3.40037e-05
3.39518e-05
3.3864e-05
3.37189e-05
3.34851e-05
3.31181e-05
3.25593e-05
3.175e-05
3.09597e-05
3.42839e-05
8.02731e-05
8.3187e-05
3.41382e-05
3.0331e-05
3.11923e-05
3.20981e-05
3.27343e-05
3.31646e-05
3.34534e-05
3.36463e-05
3.3774e-05
3.38578e-05
3.39122e-05
3.39467e-05
3.39671e-05
3.39766e-05
3.39766e-05
3.39671e-05
3.39467e-05
3.39122e-05
3.38578e-05
3.3774e-05
3.36463e-05
3.34535e-05
3.31647e-05
3.27345e-05
3.20983e-05
3.11923e-05
3.03304e-05
3.41392e-05
8.3187e-05
8.64284e-05
3.40462e-05
2.9607e-05
3.05086e-05
3.14879e-05
3.21875e-05
3.26796e-05
3.30301e-05
3.32799e-05
3.34568e-05
3.35808e-05
3.36669e-05
3.37248e-05
3.37606e-05
3.37777e-05
3.37777e-05
3.37606e-05
3.37248e-05
3.36668e-05
3.35807e-05
3.34566e-05
3.32798e-05
3.303e-05
3.26797e-05
3.21879e-05
3.14885e-05
3.05093e-05
2.96075e-05
3.40475e-05
8.64281e-05
9.01444e-05
3.41908e-05
2.90243e-05
2.96953e-05
3.06453e-05
3.13854e-05
3.19503e-05
3.23793e-05
3.27006e-05
3.29376e-05
3.31106e-05
3.32359e-05
3.33231e-05
3.33781e-05
3.34047e-05
3.34047e-05
3.3378e-05
3.33229e-05
3.32357e-05
3.31102e-05
3.29371e-05
3.27001e-05
3.23789e-05
3.19502e-05
3.13858e-05
3.06462e-05
2.96967e-05
2.90258e-05
3.41919e-05
9.01441e-05
9.46374e-05
3.5069e-05
2.87349e-05
2.85926e-05
2.93931e-05
3.02136e-05
3.09026e-05
3.14435e-05
3.18566e-05
3.21682e-05
3.24016e-05
3.25738e-05
3.2695e-05
3.27723e-05
3.28099e-05
3.28098e-05
3.27721e-05
3.26947e-05
3.25733e-05
3.24009e-05
3.21673e-05
3.18555e-05
3.14425e-05
3.09019e-05
3.02136e-05
2.9394e-05
2.85939e-05
2.8736e-05
3.50696e-05
9.46407e-05
0.000100916
3.47061e-05
2.88807e-05
2.73247e-05
2.80305e-05
2.90639e-05
2.99343e-05
3.06007e-05
3.11002e-05
3.14755e-05
3.17576e-05
3.19656e-05
3.21125e-05
3.22063e-05
3.22521e-05
3.2252e-05
3.22061e-05
3.2112e-05
3.19648e-05
3.17564e-05
3.14739e-05
3.10984e-05
3.0599e-05
2.99331e-05
2.90638e-05
2.80315e-05
2.7325e-05
2.88781e-05
3.47197e-05
0.00010092
9.79613e-05
2.13843e-05
2.79871e-05
3.04902e-05
3.23822e-05
3.36522e-05
3.44572e-05
3.49271e-05
3.51813e-05
3.53271e-05
3.54122e-05
3.54658e-05
3.55005e-05
3.55218e-05
3.55319e-05
3.55318e-05
3.55217e-05
3.55003e-05
3.54654e-05
3.54119e-05
3.53268e-05
3.51813e-05
3.49275e-05
3.44583e-05
3.36536e-05
3.23812e-05
3.04864e-05
2.79702e-05
2.13658e-05
9.79304e-05
0.000258875
0.000129339
0.000107162
9.53937e-05
8.99061e-05
8.64718e-05
8.38307e-05
8.14986e-05
7.95304e-05
7.78998e-05
7.65309e-05
7.54565e-05
7.46646e-05
7.41434e-05
7.38847e-05
7.38847e-05
7.41433e-05
7.46646e-05
7.54564e-05
7.6531e-05
7.78999e-05
7.95305e-05
8.14982e-05
8.38293e-05
8.64694e-05
8.99033e-05
9.53973e-05
0.000107174
0.000129371
0.000258898
0.000206367
0.000104502
9.12664e-05
8.40458e-05
8.18591e-05
8.08485e-05
8.01101e-05
7.92146e-05
7.84123e-05
7.78471e-05
7.74825e-05
7.71979e-05
7.69821e-05
7.68361e-05
7.67624e-05
7.67624e-05
7.68359e-05
7.69816e-05
7.71971e-05
7.7481e-05
7.78444e-05
7.84084e-05
7.92085e-05
8.01001e-05
8.08363e-05
8.18491e-05
8.40468e-05
9.12793e-05
0.000104494
0.00020641
7.57747e-05
2.06452e-05
3.80721e-05
3.84304e-05
4.0086e-05
4.09542e-05
4.1274e-05
4.11351e-05
4.06998e-05
4.02253e-05
3.98758e-05
3.96171e-05
3.94433e-05
3.93343e-05
3.92815e-05
3.92815e-05
3.93344e-05
3.94436e-05
3.96176e-05
3.98768e-05
4.02274e-05
4.07031e-05
4.11395e-05
4.1277e-05
4.09512e-05
4.00775e-05
3.84138e-05
3.80531e-05
2.06861e-05
7.57188e-05
8.82751e-05
4.87819e-05
3.94037e-05
3.12339e-05
2.87111e-05
2.79319e-05
2.77882e-05
2.7774e-05
2.77429e-05
2.76938e-05
2.76514e-05
2.7637e-05
2.76401e-05
2.76484e-05
2.76543e-05
2.76543e-05
2.76484e-05
2.76401e-05
2.7637e-05
2.76515e-05
2.76941e-05
2.77436e-05
2.77752e-05
2.77895e-05
2.79308e-05
2.87035e-05
3.12156e-05
3.93868e-05
4.88004e-05
8.82629e-05
8.48677e-05
4.62406e-05
3.41675e-05
2.69097e-05
2.44145e-05
2.41436e-05
2.44611e-05
2.48632e-05
2.52141e-05
2.54961e-05
2.57148e-05
2.58837e-05
2.60101e-05
2.60944e-05
2.61365e-05
2.61364e-05
2.60943e-05
2.60099e-05
2.58834e-05
2.57143e-05
2.54956e-05
2.52137e-05
2.48629e-05
2.44611e-05
2.41434e-05
2.44117e-05
2.69007e-05
3.41538e-05
4.62422e-05
8.48644e-05
8.37923e-05
4.26377e-05
3.07167e-05
2.51432e-05
2.39683e-05
2.41442e-05
2.46324e-05
2.51265e-05
2.55502e-05
2.58931e-05
2.61612e-05
2.63624e-05
2.65071e-05
2.66009e-05
2.66471e-05
2.66471e-05
2.66008e-05
2.65069e-05
2.63621e-05
2.61608e-05
2.58927e-05
2.55498e-05
2.51263e-05
2.46326e-05
2.41449e-05
2.3969e-05
2.51427e-05
3.07143e-05
4.2639e-05
8.3784e-05
8.29205e-05
4.01693e-05
2.84565e-05
2.46431e-05
2.43332e-05
2.47943e-05
2.53688e-05
2.58832e-05
2.63053e-05
2.66385e-05
2.68941e-05
2.70839e-05
2.72178e-05
2.73034e-05
2.73451e-05
2.73451e-05
2.73033e-05
2.72177e-05
2.70837e-05
2.68939e-05
2.66382e-05
2.63051e-05
2.58832e-05
2.53692e-05
2.47951e-05
2.43346e-05
2.46448e-05
2.84587e-05
4.01727e-05
8.29135e-05
8.18714e-05
3.84861e-05
2.71231e-05
2.46251e-05
2.48131e-05
2.54495e-05
2.6066e-05
2.65776e-05
2.69797e-05
2.72868e-05
2.75158e-05
2.76817e-05
2.77964e-05
2.78685e-05
2.79032e-05
2.79032e-05
2.78684e-05
2.77963e-05
2.76816e-05
2.75156e-05
2.72866e-05
2.69796e-05
2.65776e-05
2.60663e-05
2.54501e-05
2.48141e-05
2.46263e-05
2.71251e-05
3.84903e-05
8.18671e-05
8.10936e-05
3.74882e-05
2.65192e-05
2.48196e-05
2.52715e-05
2.59976e-05
2.66299e-05
2.71268e-05
2.75018e-05
2.77777e-05
2.79763e-05
2.81155e-05
2.8209e-05
2.82664e-05
2.82936e-05
2.82936e-05
2.82664e-05
2.82089e-05
2.81154e-05
2.79762e-05
2.77776e-05
2.75017e-05
2.71268e-05
2.66301e-05
2.5998e-05
2.52719e-05
2.48202e-05
2.65204e-05
3.74909e-05
8.1091e-05
8.04823e-05
3.69116e-05
2.63245e-05
2.51153e-05
2.5696e-05
2.64477e-05
2.70695e-05
2.75405e-05
2.78834e-05
2.81264e-05
2.82944e-05
2.84075e-05
2.84807e-05
2.85243e-05
2.85445e-05
2.85445e-05
2.85242e-05
2.84806e-05
2.84074e-05
2.82943e-05
2.81263e-05
2.78834e-05
2.75405e-05
2.70695e-05
2.64478e-05
2.56962e-05
2.51155e-05
2.6325e-05
3.69132e-05
8.0481e-05
7.9896e-05
3.65447e-05
2.63366e-05
2.54388e-05
2.60759e-05
2.68142e-05
2.74073e-05
2.78445e-05
2.81529e-05
2.83633e-05
2.85026e-05
2.85922e-05
2.86476e-05
2.86792e-05
2.86936e-05
2.86936e-05
2.86792e-05
2.86475e-05
2.85921e-05
2.85026e-05
2.83632e-05
2.81529e-05
2.78445e-05
2.74073e-05
2.68143e-05
2.60759e-05
2.54387e-05
2.63367e-05
3.65457e-05
7.98954e-05
7.93563e-05
3.63044e-05
2.64785e-05
2.57408e-05
2.63906e-05
2.71032e-05
2.76617e-05
2.80632e-05
2.8338e-05
2.85185e-05
2.86327e-05
2.87025e-05
2.87433e-05
2.87655e-05
2.87752e-05
2.87752e-05
2.87655e-05
2.87433e-05
2.87024e-05
2.86327e-05
2.85184e-05
2.8338e-05
2.80632e-05
2.76617e-05
2.71032e-05
2.63906e-05
2.57408e-05
2.64785e-05
3.6305e-05
7.9356e-05
7.8891e-05
3.61442e-05
2.66276e-05
2.59902e-05
2.66367e-05
2.73215e-05
2.78471e-05
2.82162e-05
2.84615e-05
2.86167e-05
2.87105e-05
2.87648e-05
2.87946e-05
2.88099e-05
2.88163e-05
2.88162e-05
2.88099e-05
2.87946e-05
2.87647e-05
2.87105e-05
2.86167e-05
2.84615e-05
2.82163e-05
2.78471e-05
2.73215e-05
2.66368e-05
2.59902e-05
2.66276e-05
3.61446e-05
7.88909e-05
7.85236e-05
3.60414e-05
2.67508e-05
2.61778e-05
2.68162e-05
2.74769e-05
2.79754e-05
2.83185e-05
2.85405e-05
2.86764e-05
2.8755e-05
2.8798e-05
2.88202e-05
2.88308e-05
2.8835e-05
2.8835e-05
2.88308e-05
2.88202e-05
2.8798e-05
2.8755e-05
2.86763e-05
2.85405e-05
2.83186e-05
2.79755e-05
2.7477e-05
2.68163e-05
2.61779e-05
2.67509e-05
3.60416e-05
7.85236e-05
7.82716e-05
3.59797e-05
2.68367e-05
2.63018e-05
2.69329e-05
2.75762e-05
2.80559e-05
2.83809e-05
2.85871e-05
2.87099e-05
2.87786e-05
2.88145e-05
2.8832e-05
2.88398e-05
2.88426e-05
2.88426e-05
2.88397e-05
2.8832e-05
2.88145e-05
2.87786e-05
2.87099e-05
2.85871e-05
2.8381e-05
2.8056e-05
2.75763e-05
2.6933e-05
2.63019e-05
2.68368e-05
3.59799e-05
7.82716e-05
7.81425e-05
3.59508e-05
2.68806e-05
2.63634e-05
2.69902e-05
2.76246e-05
2.80945e-05
2.84104e-05
2.86085e-05
2.87249e-05
2.87887e-05
2.88212e-05
2.88364e-05
2.88429e-05
2.88451e-05
2.88451e-05
2.88429e-05
2.88364e-05
2.88212e-05
2.87887e-05
2.87249e-05
2.86086e-05
2.84105e-05
2.80946e-05
2.76247e-05
2.69903e-05
2.63635e-05
2.68807e-05
3.5951e-05
7.81425e-05
7.81426e-05
3.59507e-05
2.68806e-05
2.63633e-05
2.69901e-05
2.76245e-05
2.80944e-05
2.84103e-05
2.86085e-05
2.87248e-05
2.87887e-05
2.88212e-05
2.88364e-05
2.88429e-05
2.88451e-05
2.88451e-05
2.88429e-05
2.88364e-05
2.88212e-05
2.87887e-05
2.87249e-05
2.86085e-05
2.84104e-05
2.80946e-05
2.76246e-05
2.69903e-05
2.63634e-05
2.68807e-05
3.59509e-05
7.81426e-05
7.82719e-05
3.59794e-05
2.68366e-05
2.63017e-05
2.69327e-05
2.7576e-05
2.80556e-05
2.83807e-05
2.85869e-05
2.87098e-05
2.87785e-05
2.88145e-05
2.8832e-05
2.88398e-05
2.88426e-05
2.88426e-05
2.88398e-05
2.8832e-05
2.88145e-05
2.87785e-05
2.87098e-05
2.8587e-05
2.83808e-05
2.80558e-05
2.75762e-05
2.69328e-05
2.63018e-05
2.68367e-05
3.59795e-05
7.82719e-05
7.85242e-05
3.60408e-05
2.67507e-05
2.61777e-05
2.6816e-05
2.74765e-05
2.79751e-05
2.83182e-05
2.85403e-05
2.86762e-05
2.87549e-05
2.8798e-05
2.88203e-05
2.88309e-05
2.88351e-05
2.88351e-05
2.88309e-05
2.88203e-05
2.8798e-05
2.87549e-05
2.86762e-05
2.85404e-05
2.83184e-05
2.79752e-05
2.74767e-05
2.68162e-05
2.61778e-05
2.67508e-05
3.60409e-05
7.85243e-05
7.88919e-05
3.61435e-05
2.66276e-05
2.59901e-05
2.66365e-05
2.73211e-05
2.78467e-05
2.82159e-05
2.84613e-05
2.86166e-05
2.87105e-05
2.87649e-05
2.87948e-05
2.88101e-05
2.88165e-05
2.88165e-05
2.88101e-05
2.87948e-05
2.87649e-05
2.87106e-05
2.86166e-05
2.84614e-05
2.82161e-05
2.78469e-05
2.73213e-05
2.66367e-05
2.59903e-05
2.66276e-05
3.61434e-05
7.8892e-05
7.93578e-05
3.63034e-05
2.64788e-05
2.57411e-05
2.63906e-05
2.71029e-05
2.76614e-05
2.8063e-05
2.83378e-05
2.85185e-05
2.86328e-05
2.87027e-05
2.87437e-05
2.8766e-05
2.87757e-05
2.87757e-05
2.8766e-05
2.87437e-05
2.87027e-05
2.86329e-05
2.85185e-05
2.8338e-05
2.80631e-05
2.76616e-05
2.71032e-05
2.63908e-05
2.57412e-05
2.64787e-05
3.63033e-05
7.9358e-05
7.98985e-05
3.65431e-05
2.63372e-05
2.54395e-05
2.60762e-05
2.68142e-05
2.74072e-05
2.78444e-05
2.81529e-05
2.83634e-05
2.85029e-05
2.85927e-05
2.86482e-05
2.86799e-05
2.86943e-05
2.86943e-05
2.86799e-05
2.86482e-05
2.85927e-05
2.8503e-05
2.83635e-05
2.8153e-05
2.78446e-05
2.74074e-05
2.68144e-05
2.60763e-05
2.54395e-05
2.63371e-05
3.65428e-05
7.98987e-05
8.04861e-05
3.69092e-05
2.63245e-05
2.51162e-05
2.56965e-05
2.64479e-05
2.70695e-05
2.75405e-05
2.78836e-05
2.81267e-05
2.82949e-05
2.84082e-05
2.84816e-05
2.85253e-05
2.85456e-05
2.85456e-05
2.85253e-05
2.84816e-05
2.84083e-05
2.8295e-05
2.81268e-05
2.78838e-05
2.75407e-05
2.70697e-05
2.6448e-05
2.56966e-05
2.51162e-05
2.63244e-05
3.69084e-05
8.04866e-05
8.10991e-05
3.74842e-05
2.65164e-05
2.48197e-05
2.52716e-05
2.59978e-05
2.66301e-05
2.7127e-05
2.75021e-05
2.77782e-05
2.7977e-05
2.81165e-05
2.82102e-05
2.82677e-05
2.82951e-05
2.82951e-05
2.82677e-05
2.82102e-05
2.81165e-05
2.79771e-05
2.77784e-05
2.75023e-05
2.71272e-05
2.66302e-05
2.59979e-05
2.52716e-05
2.48197e-05
2.65162e-05
3.74825e-05
8.11005e-05
8.18755e-05
3.8478e-05
2.71129e-05
2.46225e-05
2.48118e-05
2.54493e-05
2.60661e-05
2.65778e-05
2.69801e-05
2.72874e-05
2.75166e-05
2.76828e-05
2.77978e-05
2.787e-05
2.79049e-05
2.79049e-05
2.78701e-05
2.77979e-05
2.76829e-05
2.75168e-05
2.72876e-05
2.69804e-05
2.6578e-05
2.60663e-05
2.54493e-05
2.48117e-05
2.46224e-05
2.71128e-05
3.84752e-05
8.18783e-05
8.29258e-05
4.01539e-05
2.84329e-05
2.46366e-05
2.43316e-05
2.47938e-05
2.53688e-05
2.58834e-05
2.63057e-05
2.66391e-05
2.6895e-05
2.7085e-05
2.72193e-05
2.73051e-05
2.73469e-05
2.73469e-05
2.73051e-05
2.72194e-05
2.70852e-05
2.68953e-05
2.66394e-05
2.63061e-05
2.58838e-05
2.53691e-05
2.47939e-05
2.43315e-05
2.4637e-05
2.84345e-05
4.01521e-05
8.29305e-05
8.37999e-05
4.26098e-05
3.06867e-05
2.51274e-05
2.39644e-05
2.41433e-05
2.46326e-05
2.51271e-05
2.55508e-05
2.58938e-05
2.6162e-05
2.63635e-05
2.65084e-05
2.66025e-05
2.66488e-05
2.66488e-05
2.66025e-05
2.65085e-05
2.63637e-05
2.61623e-05
2.58943e-05
2.55514e-05
2.51277e-05
2.46332e-05
2.41437e-05
2.39651e-05
2.51309e-05
3.06936e-05
4.2613e-05
8.38075e-05
8.48851e-05
4.62151e-05
3.41318e-05
2.68858e-05
2.44097e-05
2.41451e-05
2.44644e-05
2.48664e-05
2.52167e-05
2.54981e-05
2.57164e-05
2.5885e-05
2.60113e-05
2.60957e-05
2.61378e-05
2.61379e-05
2.60957e-05
2.60115e-05
2.58852e-05
2.57166e-05
2.54985e-05
2.52172e-05
2.48669e-05
2.44647e-05
2.41454e-05
2.44121e-05
2.68975e-05
3.41542e-05
4.62227e-05
8.48846e-05
8.83518e-05
4.88706e-05
3.93901e-05
3.1216e-05
2.87135e-05
2.79467e-05
2.78066e-05
2.77902e-05
2.77556e-05
2.77032e-05
2.76576e-05
2.76411e-05
2.76428e-05
2.76506e-05
2.76562e-05
2.76562e-05
2.76505e-05
2.76428e-05
2.7641e-05
2.76574e-05
2.77028e-05
2.77547e-05
2.77883e-05
2.78035e-05
2.79437e-05
2.87157e-05
3.1237e-05
3.94083e-05
4.88437e-05
8.83519e-05
7.57641e-05
2.06362e-05
3.794e-05
3.83773e-05
4.00733e-05
4.09695e-05
4.12973e-05
4.11553e-05
4.07184e-05
4.02408e-05
3.98852e-05
3.96235e-05
3.94475e-05
3.93374e-05
3.92843e-05
3.92842e-05
3.93373e-05
3.94472e-05
3.96231e-05
3.98841e-05
4.02384e-05
4.07145e-05
4.1149e-05
4.12882e-05
4.0961e-05
4.0083e-05
3.84082e-05
3.79692e-05
2.06005e-05
7.57634e-05
0.000206357
0.000104475
9.12272e-05
8.40116e-05
8.18227e-05
8.08212e-05
8.00913e-05
7.92024e-05
7.84079e-05
7.78354e-05
7.74719e-05
7.7189e-05
7.69744e-05
7.68293e-05
7.6756e-05
7.67561e-05
7.68294e-05
7.69746e-05
7.71894e-05
7.74725e-05
7.78367e-05
7.84106e-05
7.92077e-05
8.01017e-05
8.08389e-05
8.18484e-05
8.40334e-05
9.12437e-05
0.000104551
0.000206323
0.000183876
9.19055e-05
8.16107e-05
7.56515e-05
7.43149e-05
7.3836e-05
7.36075e-05
7.34086e-05
7.32658e-05
7.31251e-05
7.29734e-05
7.28527e-05
7.27626e-05
7.27028e-05
7.26729e-05
7.26728e-05
7.27027e-05
7.27625e-05
7.28523e-05
7.29727e-05
7.31247e-05
7.3266e-05
7.34098e-05
7.36099e-05
7.38397e-05
7.43258e-05
7.56693e-05
8.16281e-05
9.19063e-05
0.000183887
6.84625e-05
2.37662e-05
4.62105e-05
4.67125e-05
4.95245e-05
5.13111e-05
5.21023e-05
5.21252e-05
5.16534e-05
5.09828e-05
5.02715e-05
4.96685e-05
4.92101e-05
4.8909e-05
4.87606e-05
4.87606e-05
4.8909e-05
4.92103e-05
4.96688e-05
5.02713e-05
5.0982e-05
5.16526e-05
5.21251e-05
5.21011e-05
5.1306e-05
4.95227e-05
4.67307e-05
4.62377e-05
2.37237e-05
6.84835e-05
8.12649e-05
5.66644e-05
4.87169e-05
3.89806e-05
3.33135e-05
3.13117e-05
3.06087e-05
3.02529e-05
2.99204e-05
2.95984e-05
2.93289e-05
2.91016e-05
2.89378e-05
2.88432e-05
2.88025e-05
2.88025e-05
2.88432e-05
2.89379e-05
2.91018e-05
2.93291e-05
2.95985e-05
2.99201e-05
3.02523e-05
3.06077e-05
3.1312e-05
3.33167e-05
3.89931e-05
4.87329e-05
5.66715e-05
8.12683e-05
7.71189e-05
5.51453e-05
4.34047e-05
3.08803e-05
2.51781e-05
2.31782e-05
2.27551e-05
2.28413e-05
2.30151e-05
2.31705e-05
2.32983e-05
2.33941e-05
2.34634e-05
2.35117e-05
2.35373e-05
2.35373e-05
2.35117e-05
2.34635e-05
2.33943e-05
2.32986e-05
2.3171e-05
2.30157e-05
2.28422e-05
2.27564e-05
2.31802e-05
2.5181e-05
3.08876e-05
4.34178e-05
5.51483e-05
7.71196e-05
7.63058e-05
5.21973e-05
3.68073e-05
2.63467e-05
2.21582e-05
2.11094e-05
2.11465e-05
2.14915e-05
2.18684e-05
2.21962e-05
2.24604e-05
2.26621e-05
2.28072e-05
2.29018e-05
2.29487e-05
2.29487e-05
2.29019e-05
2.28073e-05
2.26623e-05
2.24608e-05
2.21968e-05
2.18692e-05
2.14927e-05
2.11482e-05
2.11115e-05
2.21607e-05
2.63504e-05
3.68115e-05
5.22016e-05
7.63116e-05
7.59924e-05
4.96681e-05
3.22561e-05
2.40001e-05
2.1407e-05
2.10373e-05
2.13242e-05
2.17675e-05
2.21976e-05
2.25632e-05
2.28548e-05
2.30764e-05
2.3235e-05
2.33372e-05
2.33873e-05
2.33873e-05
2.33373e-05
2.32351e-05
2.30766e-05
2.28552e-05
2.25637e-05
2.21984e-05
2.17687e-05
2.13256e-05
2.1039e-05
2.14088e-05
2.40018e-05
3.22576e-05
4.96687e-05
7.59944e-05
7.60185e-05
4.73831e-05
2.95866e-05
2.29022e-05
2.13801e-05
2.14311e-05
2.18693e-05
2.23591e-05
2.27999e-05
2.31639e-05
2.34496e-05
2.3664e-05
2.38158e-05
2.39126e-05
2.39598e-05
2.39598e-05
2.39127e-05
2.38159e-05
2.36642e-05
2.345e-05
2.31645e-05
2.28006e-05
2.23601e-05
2.18706e-05
2.14326e-05
2.13818e-05
2.29037e-05
2.95875e-05
4.73838e-05
7.60201e-05
7.59232e-05
4.54071e-05
2.80476e-05
2.25264e-05
2.16159e-05
2.19006e-05
2.24238e-05
2.29351e-05
2.3371e-05
2.372e-05
2.39877e-05
2.41847e-05
2.43219e-05
2.44084e-05
2.44501e-05
2.44501e-05
2.44085e-05
2.43221e-05
2.41849e-05
2.3988e-05
2.37204e-05
2.33716e-05
2.2936e-05
2.2425e-05
2.1902e-05
2.16176e-05
2.2528e-05
2.8049e-05
4.54082e-05
7.59245e-05
7.57494e-05
4.38118e-05
2.71832e-05
2.24695e-05
2.19226e-05
2.23384e-05
2.29046e-05
2.34198e-05
2.38417e-05
2.41692e-05
2.44138e-05
2.45895e-05
2.47093e-05
2.47833e-05
2.48186e-05
2.48187e-05
2.47834e-05
2.47094e-05
2.45897e-05
2.44141e-05
2.41696e-05
2.38423e-05
2.34206e-05
2.29057e-05
2.23397e-05
2.19242e-05
2.24712e-05
2.71846e-05
4.3813e-05
7.57501e-05
7.55706e-05
4.26162e-05
2.67008e-05
2.25379e-05
2.22254e-05
2.27155e-05
2.32979e-05
2.38044e-05
2.4206e-05
2.45088e-05
2.47286e-05
2.4882e-05
2.49839e-05
2.50455e-05
2.50744e-05
2.50745e-05
2.50456e-05
2.4984e-05
2.48822e-05
2.47289e-05
2.45093e-05
2.42066e-05
2.38052e-05
2.32989e-05
2.27168e-05
2.22269e-05
2.25398e-05
2.67029e-05
4.26174e-05
7.55711e-05
7.53942e-05
4.17434e-05
2.63206e-05
2.26403e-05
2.24921e-05
2.30249e-05
2.36079e-05
2.40982e-05
2.44765e-05
2.4754e-05
2.49495e-05
2.50818e-05
2.51671e-05
2.52174e-05
2.52406e-05
2.52406e-05
2.52175e-05
2.51673e-05
2.5082e-05
2.49498e-05
2.47544e-05
2.4477e-05
2.40989e-05
2.36088e-05
2.30261e-05
2.24936e-05
2.26421e-05
2.63227e-05
4.17447e-05
7.53946e-05
7.52314e-05
4.11317e-05
2.60912e-05
2.27552e-05
2.2712e-05
2.32672e-05
2.38426e-05
2.43142e-05
2.46696e-05
2.49236e-05
2.50974e-05
2.52115e-05
2.52827e-05
2.53235e-05
2.5342e-05
2.5342e-05
2.53236e-05
2.52829e-05
2.52117e-05
2.50977e-05
2.49239e-05
2.46701e-05
2.43149e-05
2.38435e-05
2.32684e-05
2.27135e-05
2.2757e-05
2.60932e-05
4.11329e-05
7.52317e-05
7.50933e-05
4.07105e-05
2.59656e-05
2.28593e-05
2.28803e-05
2.34453e-05
2.40105e-05
2.44647e-05
2.48003e-05
2.50349e-05
2.51914e-05
2.52912e-05
2.53515e-05
2.53852e-05
2.54001e-05
2.54001e-05
2.53853e-05
2.53517e-05
2.52914e-05
2.51917e-05
2.50353e-05
2.48008e-05
2.44654e-05
2.40113e-05
2.34464e-05
2.28817e-05
2.28611e-05
2.59675e-05
4.07117e-05
7.50937e-05
7.49937e-05
4.04478e-05
2.59009e-05
2.29368e-05
2.2994e-05
2.3562e-05
2.41184e-05
2.45595e-05
2.48808e-05
2.51017e-05
2.52461e-05
2.5336e-05
2.53891e-05
2.5418e-05
2.54306e-05
2.54306e-05
2.54181e-05
2.53892e-05
2.53362e-05
2.52463e-05
2.5102e-05
2.48813e-05
2.45601e-05
2.41191e-05
2.35631e-05
2.29954e-05
2.29385e-05
2.59027e-05
4.0449e-05
7.4994e-05
7.49427e-05
4.03218e-05
2.58736e-05
2.29773e-05
2.30512e-05
2.36199e-05
2.41712e-05
2.46054e-05
2.49192e-05
2.51329e-05
2.52711e-05
2.53561e-05
2.54055e-05
2.54321e-05
2.54435e-05
2.54435e-05
2.54321e-05
2.54056e-05
2.53562e-05
2.52713e-05
2.51332e-05
2.49196e-05
2.46059e-05
2.4172e-05
2.36209e-05
2.30525e-05
2.29789e-05
2.58754e-05
4.0323e-05
7.49431e-05
7.49437e-05
4.03219e-05
2.5874e-05
2.29779e-05
2.30518e-05
2.36204e-05
2.41716e-05
2.46057e-05
2.49194e-05
2.5133e-05
2.52712e-05
2.53561e-05
2.54055e-05
2.54321e-05
2.54435e-05
2.54435e-05
2.54321e-05
2.54056e-05
2.53562e-05
2.52713e-05
2.51333e-05
2.49197e-05
2.46062e-05
2.41723e-05
2.36214e-05
2.3053e-05
2.29795e-05
2.58758e-05
4.03231e-05
7.49441e-05
7.49969e-05
4.04481e-05
2.5902e-05
2.29386e-05
2.29957e-05
2.35635e-05
2.41196e-05
2.45604e-05
2.48815e-05
2.51021e-05
2.52463e-05
2.53361e-05
2.53892e-05
2.5418e-05
2.54306e-05
2.54306e-05
2.54181e-05
2.53892e-05
2.53363e-05
2.52465e-05
2.51023e-05
2.48818e-05
2.45609e-05
2.41202e-05
2.35644e-05
2.29969e-05
2.29401e-05
2.59038e-05
4.04493e-05
7.49972e-05
7.50989e-05
4.07106e-05
2.59672e-05
2.28621e-05
2.28832e-05
2.34478e-05
2.40125e-05
2.44663e-05
2.48014e-05
2.50356e-05
2.51918e-05
2.52913e-05
2.53516e-05
2.53851e-05
2.54e-05
2.54e-05
2.53852e-05
2.53516e-05
2.52914e-05
2.51919e-05
2.50358e-05
2.48017e-05
2.44667e-05
2.40131e-05
2.34487e-05
2.28844e-05
2.28637e-05
2.5969e-05
4.07118e-05
7.50993e-05
7.524e-05
4.11313e-05
2.60927e-05
2.27589e-05
2.27159e-05
2.32708e-05
2.38454e-05
2.43163e-05
2.46709e-05
2.49244e-05
2.50978e-05
2.52116e-05
2.52826e-05
2.53233e-05
2.53417e-05
2.53417e-05
2.53234e-05
2.52827e-05
2.52117e-05
2.5098e-05
2.49246e-05
2.46713e-05
2.43167e-05
2.3846e-05
2.32716e-05
2.27172e-05
2.27605e-05
2.60945e-05
4.11323e-05
7.52404e-05
7.54066e-05
4.17417e-05
2.63209e-05
2.26442e-05
2.24967e-05
2.30292e-05
2.36113e-05
2.41007e-05
2.44781e-05
2.47548e-05
2.49497e-05
2.50817e-05
2.51667e-05
2.52168e-05
2.524e-05
2.524e-05
2.52169e-05
2.51667e-05
2.50818e-05
2.49498e-05
2.4755e-05
2.44784e-05
2.41011e-05
2.36119e-05
2.30301e-05
2.2498e-05
2.26458e-05
2.63228e-05
4.17428e-05
7.5407e-05
7.55879e-05
4.26119e-05
2.66977e-05
2.25405e-05
2.22299e-05
2.27201e-05
2.33016e-05
2.3807e-05
2.42075e-05
2.45094e-05
2.47284e-05
2.48813e-05
2.49829e-05
2.50443e-05
2.50732e-05
2.50732e-05
2.50444e-05
2.4983e-05
2.48814e-05
2.47286e-05
2.45096e-05
2.42078e-05
2.38075e-05
2.33023e-05
2.27211e-05
2.22312e-05
2.25423e-05
2.66997e-05
4.26131e-05
7.55883e-05
7.57732e-05
4.38033e-05
2.71747e-05
2.24685e-05
2.19256e-05
2.23423e-05
2.29079e-05
2.3422e-05
2.38427e-05
2.41691e-05
2.44129e-05
2.4588e-05
2.47074e-05
2.47813e-05
2.48165e-05