/*--------------------------------*- C++ -*----------------------------------*\
| =========                 |                                                 |
| \\      /  F ield         | OpenFOAM: The Open Source CFD Toolbox           |
|  \\    /   O peration     | Version:  2312                                  |
|   \\  /    A nd           | Website:  www.openfoam.com                      |
|    \\/     M anipulation  |                                                 |
\*---------------------------------------------------------------------------*/
FoamFile
{
    version     2.0;
    format      ascii;
    arch        "LSB;label=32;scalar=64";
    class       volScalarField;
    location    "50";
    object      nut;
}
// * * * * * * * * * * * * * * * * * * * * * * * * * * * * * * * * * * * * * //

dimensions      [0 2 -1 0 0 0 0];

internalField   nonuniform List<scalar> 
27000
(
3.95909e-06
6.71851e-06
9.37143e-06
1.1743e-05
1.40512e-05
1.62078e-05
1.81662e-05
1.9822e-05
2.12434e-05
2.2471e-05
2.34671e-05
2.42576e-05
2.48478e-05
2.52399e-05
2.54356e-05
2.54356e-05
2.524e-05
2.48478e-05
2.42577e-05
2.34672e-05
2.24711e-05
2.12435e-05
1.98221e-05
1.81663e-05
1.62078e-05
1.40512e-05
1.17426e-05
9.37083e-06
6.71925e-06
3.95866e-06
5.75523e-06
1.26851e-06
5.10565e-06
9.00313e-06
1.30792e-05
1.69818e-05
2.06939e-05
2.41443e-05
2.72759e-05
3.00997e-05
3.25576e-05
3.45971e-05
3.61718e-05
3.72427e-05
3.7785e-05
3.77858e-05
3.72449e-05
3.61761e-05
3.46056e-05
3.25687e-05
3.01141e-05
2.72925e-05
2.41614e-05
2.07032e-05
1.69865e-05
1.30729e-05
8.99358e-06
5.10052e-06
1.26909e-06
5.75387e-06
9.2258e-06
7.09367e-06
1.44981e-05
2.59111e-05
3.64327e-05
4.58508e-05
5.45463e-05
6.26221e-05
6.99909e-05
7.65708e-05
8.22462e-05
8.69111e-05
9.04778e-05
9.28852e-05
9.40978e-05
9.40992e-05
9.28901e-05
9.04878e-05
8.69282e-05
8.22702e-05
7.66016e-05
7.00272e-05
6.26567e-05
5.45679e-05
4.58558e-05
3.64077e-05
2.58725e-05
1.44808e-05
7.08756e-06
9.22575e-06
1.21565e-05
1.07456e-05
2.58183e-05
5.20637e-05
7.70783e-05
9.48606e-05
0.000108299
0.000119452
0.000128953
0.000136969
0.000143579
0.000148886
0.000152864
0.00015551
0.00015683
0.000156831
0.000155514
0.000152871
0.000148899
0.000143598
0.000136993
0.000128982
0.00011948
0.000108314
9.48516e-05
7.70367e-05
5.20123e-05
2.5797e-05
1.07435e-05
1.2156e-05
1.49246e-05
1.43945e-05
3.64543e-05
7.51805e-05
0.000111622
0.000137162
0.000153978
0.000166077
0.00017531
0.000182286
0.00018741
0.000191534
0.000194595
0.000196608
0.000197605
0.000197605
0.000196608
0.000194596
0.000191536
0.000187414
0.00018229
0.000175315
0.00016608
0.000153971
0.000137138
0.000111585
7.51472e-05
3.64413e-05
1.43931e-05
1.49248e-05
1.74904e-05
1.84007e-05
4.73597e-05
9.39547e-05
0.000135984
0.000165315
0.000183538
0.000195158
0.000202988
0.000208441
0.000212261
0.000215032
0.000216999
0.000218264
0.000218882
0.000218882
0.000218262
0.000216996
0.000215028
0.000212256
0.000208435
0.00020298
0.000195146
0.00018352
0.000165293
0.00013596
9.39437e-05
4.7365e-05
1.84067e-05
1.74905e-05
1.98293e-05
2.26062e-05
5.83669e-05
0.000110192
0.000153949
0.000183345
0.000201261
0.000211848
0.000218242
0.00022224
0.000224807
0.000226503
0.000227624
0.000228314
0.000228644
0.000228643
0.000228312
0.00022762
0.000226497
0.000224799
0.00022223
0.000218228
0.00021183
0.000201239
0.000183322
0.00015393
0.000110194
5.83847e-05
2.26186e-05
1.98292e-05
2.19226e-05
2.68877e-05
6.89989e-05
0.000124494
0.000168414
0.000195915
0.00021209
0.000221165
0.00022619
0.000228999
0.000230601
0.000231538
0.000232094
0.000232411
0.000232556
0.000232555
0.000232409
0.000232091
0.000231533
0.000230593
0.000228989
0.000226175
0.000221146
0.000212068
0.000195893
0.000168398
0.000124498
6.9021e-05
2.69011e-05
2.19226e-05
2.37352e-05
3.10954e-05
7.89873e-05
0.00013689
0.000179912
0.000205002
0.000219007
0.000226428
0.000230214
0.000232096
0.000233013
0.000233455
0.000233668
0.000233767
0.000233807
0.000233806
0.000233766
0.000233665
0.000233451
0.000233006
0.000232087
0.000230202
0.000226411
0.000218988
0.000204984
0.0001799
0.000136894
7.90073e-05
3.11073e-05
2.37351e-05
2.52875e-05
3.50578e-05
8.8024e-05
0.000147291
0.000188134
0.000211352
0.000223467
0.000229439
0.000232212
0.000233406
0.000233864
0.000234004
0.000234024
0.00023401
0.000233998
0.000233997
0.000234009
0.000234022
0.000234001
0.000233859
0.000233399
0.000232202
0.000229426
0.000223451
0.000211337
0.000188123
0.000147292
8.80388e-05
3.50668e-05
2.52874e-05
2.65808e-05
3.86146e-05
9.58611e-05
0.000155922
0.000194871
0.000215964
0.000226397
0.000231185
0.000233184
0.000233895
0.000234062
0.000234032
0.000233956
0.00023389
0.000233855
0.000233855
0.00023389
0.000233954
0.00023403
0.000234058
0.00023389
0.000233177
0.000231176
0.000226386
0.000215951
0.000194861
0.00015592
9.58704e-05
3.86207e-05
2.65807e-05
2.76152e-05
4.16273e-05
0.000102307
0.000162733
0.000200027
0.000219293
0.00022834
0.00023221
0.000233647
0.000234035
0.000234028
0.000233909
0.000233791
0.000233707
0.000233666
0.000233665
0.000233707
0.000233789
0.000233907
0.000234025
0.000234031
0.000233642
0.000232203
0.000228331
0.000219283
0.000200017
0.000162728
0.000102311
4.16308e-05
2.76152e-05
2.83912e-05
4.3987e-05
0.000107228
0.000167746
0.000203708
0.000221578
0.000229593
0.000232805
0.000233861
0.000234046
0.00023394
0.00023378
0.000233647
0.000233561
0.00023352
0.00023352
0.00023356
0.000233646
0.000233778
0.000233938
0.000234042
0.000233856
0.000232799
0.000229586
0.000221569
0.000203698
0.00016774
0.000107229
4.39886e-05
2.83912e-05
2.89087e-05
4.5608e-05
0.000110545
0.000171034
0.000206062
0.000222997
0.000230338
0.000233131
0.000233953
0.000234022
0.000233865
0.000233688
0.000233553
0.000233469
0.000233431
0.00023343
0.000233469
0.000233552
0.000233686
0.000233863
0.000234019
0.00023395
0.000233126
0.000230332
0.000222989
0.000206053
0.000171027
0.000110544
4.56086e-05
2.89087e-05
2.91675e-05
4.64322e-05
0.000112212
0.000172659
0.000207206
0.000223673
0.000230683
0.000233274
0.000233987
0.000234002
0.000233824
0.000233642
0.000233508
0.000233427
0.00023339
0.00023339
0.000233426
0.000233507
0.00023364
0.000233822
0.000234
0.000233983
0.00023327
0.000230678
0.000223667
0.000207197
0.000172652
0.00011221
4.64324e-05
2.91674e-05
2.91674e-05
4.64318e-05
0.00011221
0.000172657
0.000207203
0.00022367
0.000230681
0.000233273
0.000233985
0.000234001
0.000233824
0.000233641
0.000233508
0.000233427
0.00023339
0.000233389
0.000233426
0.000233507
0.00023364
0.000233822
0.000233999
0.000233982
0.000233268
0.000230676
0.000223664
0.000207195
0.000172649
0.000112208
4.64317e-05
2.91674e-05
2.89086e-05
4.56069e-05
0.00011054
0.000171026
0.000206052
0.000222988
0.000230331
0.000233126
0.000233949
0.000234019
0.000233863
0.000233686
0.000233552
0.000233469
0.00023343
0.00023343
0.000233468
0.000233551
0.000233685
0.000233861
0.000234016
0.000233946
0.000233122
0.000230326
0.000222982
0.000206044
0.000171018
0.000110537
4.56063e-05
2.89086e-05
2.8391e-05
4.39858e-05
0.000107222
0.000167733
0.000203692
0.000221563
0.000229581
0.000232795
0.000233854
0.000234041
0.000233937
0.000233777
0.000233645
0.00023356
0.000233519
0.000233519
0.000233559
0.000233644
0.000233776
0.000233935
0.000234039
0.000233851
0.000232792
0.000229577
0.000221557
0.000203684
0.000167724
0.000107217
4.39842e-05
2.8391e-05
2.7615e-05
4.16269e-05
0.0001023
0.000162716
0.000200005
0.000219272
0.000228322
0.000232196
0.000233637
0.000234029
0.000234024
0.000233907
0.000233789
0.000233706
0.000233665
0.000233665
0.000233706
0.000233788
0.000233905
0.000234022
0.000234027
0.000233635
0.000232194
0.000228319
0.000219267
0.000199997
0.000162705
0.000102292
4.16231e-05
2.7615e-05
2.65804e-05
3.86157e-05
9.58558e-05
0.000155904
0.000194846
0.000215938
0.000226375
0.000231167
0.000233171
0.000233887
0.000234057
0.00023403
0.000233955
0.00023389
0.000233855
0.000233855
0.00023389
0.000233954
0.000234029
0.000234056
0.000233886
0.000233171
0.000231167
0.000226373
0.000215934
0.000194836
0.000155889
9.58426e-05
3.86092e-05
2.65804e-05
2.5287e-05
3.50609e-05
8.80222e-05
0.000147275
0.000188107
0.000211322
0.000223439
0.000229417
0.000232197
0.000233396
0.000233859
0.000234003
0.000234025
0.000234012
0.000234
0.000234
0.000234012
0.000234025
0.000234003
0.000233859
0.000233398
0.000232199
0.00022942
0.000223442
0.000211321
0.000188098
0.000147256
8.80022e-05
3.50508e-05
2.52871e-05
2.37346e-05
3.11015e-05
7.89911e-05
0.000136877
0.000179883
0.000204968
0.000218976
0.000226403
0.000230198
0.000232087
0.000233009
0.000233456
0.000233671
0.000233773
0.000233813
0.000233813
0.000233773
0.000233672
0.000233457
0.000233012
0.000232091
0.000230204
0.000226412
0.000218985
0.000204974
0.000179877
0.000136854
7.89639e-05
3.10876e-05
2.37347e-05
2.19219e-05
2.68963e-05
6.90075e-05
0.000124481
0.00016838
0.000195877
0.000212057
0.000221141
0.000226175
0.000228992
0.000230601
0.000231543
0.000232103
0.000232422
0.000232568
0.000232568
0.000232423
0.000232104
0.000231546
0.000230605
0.000229
0.000226186
0.000221155
0.000212073
0.000195891
0.000168381
0.000124459
6.89768e-05
2.68807e-05
2.1922e-05
1.98287e-05
2.26153e-05
5.83761e-05
0.000110176
0.000153915
0.000183308
0.000201232
0.00021183
0.000218233
0.000222239
0.000224813
0.000226514
0.000227639
0.000228331
0.000228663
0.000228663
0.000228333
0.000227641
0.000226518
0.000224819
0.000222248
0.000218246
0.000211847
0.000201254
0.00018333
0.000153926
0.000110162
5.83507e-05
2.26011e-05
1.98288e-05
1.74898e-05
1.84058e-05
4.73606e-05
9.39216e-05
0.000135936
0.000165283
0.000183525
0.000195155
0.000202993
0.000208451
0.000212275
0.00021505
0.000217021
0.000218288
0.000218909
0.000218909
0.00021829
0.000217023
0.000215053
0.000212279
0.000208456
0.000203002
0.000195169
0.000183545
0.000165312
0.000135968
9.39336e-05
4.73551e-05
1.83992e-05
1.74898e-05
1.4924e-05
1.43957e-05
3.64348e-05
7.51275e-05
0.000111577
0.000137153
0.00015399
0.000166099
0.000175336
0.000182309
0.000187437
0.000191562
0.000194624
0.000196639
0.000197636
0.000197636
0.000196638
0.000194623
0.000191559
0.000187432
0.000182303
0.000175328
0.000166094
0.000153997
0.000137182
0.000111631
7.51753e-05
3.64538e-05
1.43972e-05
1.4924e-05
1.21552e-05
1.07451e-05
2.5797e-05
5.20115e-05
7.70579e-05
9.48845e-05
0.00010834
0.000119499
0.000129002
0.000137013
0.000143619
0.000148923
0.000152899
0.000155544
0.000156863
0.000156861
0.000155539
0.000152891
0.000148909
0.000143598
0.000136982
0.000128963
0.000119458
0.000108311
9.48914e-05
7.71142e-05
5.20759e-05
2.58254e-05
1.07508e-05
1.21558e-05
9.22454e-06
7.08817e-06
1.44805e-05
2.58765e-05
3.64261e-05
4.58744e-05
5.45782e-05
6.26597e-05
7.004e-05
7.66152e-05
8.22829e-05
8.69422e-05
9.05057e-05
9.29109e-05
9.41212e-05
9.4119e-05
9.29048e-05
9.0494e-05
8.69229e-05
8.2252e-05
7.65725e-05
6.999e-05
6.26101e-05
5.4538e-05
4.58645e-05
3.64528e-05
2.59231e-05
1.4501e-05
7.09591e-06
9.22483e-06
5.75546e-06
1.26945e-06
5.09935e-06
8.9921e-06
1.30736e-05
1.69889e-05
2.07048e-05
2.41575e-05
2.72992e-05
3.01172e-05
3.25707e-05
3.46063e-05
3.61795e-05
3.72494e-05
3.77905e-05
3.77896e-05
3.72466e-05
3.6174e-05
3.45976e-05
3.2555e-05
3.00966e-05
2.72751e-05
2.41348e-05
2.06875e-05
1.69831e-05
1.30812e-05
9.00028e-06
5.10123e-06
1.26792e-06
5.75369e-06
3.95894e-06
6.71886e-06
9.37121e-06
1.17439e-05
1.40526e-05
1.62089e-05
1.8167e-05
1.98222e-05
2.1248e-05
2.24721e-05
2.34683e-05
2.42587e-05
2.48488e-05
2.52409e-05
2.54366e-05
2.54366e-05
2.52409e-05
2.48488e-05
2.42587e-05
2.34682e-05
2.24721e-05
2.1248e-05
1.9822e-05
1.81666e-05
1.62083e-05
1.40518e-05
1.17438e-05
9.37234e-06
6.72011e-06
3.95928e-06
3.54425e-06
6.03947e-06
8.63084e-06
1.09743e-05
1.3336e-05
1.55774e-05
1.76456e-05
1.941e-05
2.09357e-05
2.22277e-05
2.3359e-05
2.42734e-05
2.49618e-05
2.54218e-05
2.56521e-05
2.56521e-05
2.54217e-05
2.49616e-05
2.42731e-05
2.33584e-05
2.22269e-05
2.09346e-05
1.94083e-05
1.7643e-05
1.55744e-05
1.33338e-05
1.09736e-05
8.63192e-06
6.03722e-06
3.54493e-06
5.06856e-06
1.39665e-06
6.93574e-06
1.01527e-05
1.35846e-05
1.65708e-05
1.92155e-05
2.15058e-05
2.34575e-05
2.51076e-05
2.6552e-05
2.77348e-05
2.86396e-05
2.92488e-05
2.95551e-05
2.9555e-05
2.92475e-05
2.86364e-05
2.77298e-05
2.65445e-05
2.50965e-05
2.34427e-05
2.14877e-05
1.92e-05
1.65598e-05
1.35776e-05
1.01554e-05
6.93881e-06
1.40041e-06
5.06564e-06
8.60886e-06
9.96795e-06
1.29991e-05
1.63093e-05
2.13702e-05
2.59757e-05
3.02938e-05
3.44082e-05
3.82686e-05
4.17453e-05
4.47518e-05
4.72323e-05
4.913e-05
5.04141e-05
5.1062e-05
5.10608e-05
5.04109e-05
4.91233e-05
4.72217e-05
4.47358e-05
4.17229e-05
3.82395e-05
3.43767e-05
3.02706e-05
2.59698e-05
2.13844e-05
1.63323e-05
1.30162e-05
9.98156e-06
8.60816e-06
1.14668e-05
1.26248e-05
1.72873e-05
2.46552e-05
3.53742e-05
4.64939e-05
5.59392e-05
6.40547e-05
7.12587e-05
7.76304e-05
8.30723e-05
8.74421e-05
9.07265e-05
9.29189e-05
9.40154e-05
9.4014e-05
9.29138e-05
9.07171e-05
8.74272e-05
8.30507e-05
7.76018e-05
7.12244e-05
6.40229e-05
5.59274e-05
4.65186e-05
3.54267e-05
2.47016e-05
1.73081e-05
1.26333e-05
1.14668e-05
1.43139e-05
1.4983e-05
2.20524e-05
3.49646e-05
5.46638e-05
7.4455e-05
9.02445e-05
0.000102265
0.000111769
0.000119788
0.000126639
0.000131832
0.00013562
0.000138106
0.000139339
0.000139337
0.000138101
0.000135611
0.000131819
0.000126623
0.000119769
0.000111751
0.000102256
9.02641e-05
7.45109e-05
5.47324e-05
3.50106e-05
2.20671e-05
1.49828e-05
1.43126e-05
1.7032e-05
1.72695e-05
2.7112e-05
4.6515e-05
7.38645e-05
0.000100104
0.000121088
0.000136324
0.000147422
0.000155853
0.000162431
0.000167387
0.000170927
0.000173212
0.000174334
0.000174333
0.000173209
0.000170922
0.000167379
0.000162422
0.000155846
0.00014742
0.000136335
0.00012112
0.00010015
7.3913e-05
4.6538e-05
2.71121e-05
1.72621e-05
1.70305e-05
1.95311e-05
1.95971e-05
3.20916e-05
5.80285e-05
9.10387e-05
0.000121282
0.000144745
0.000161555
0.000173286
0.000181573
0.000187547
0.000191834
0.000194799
0.000196669
0.000197574
0.000197573
0.000196666
0.000194795
0.000191829
0.000187543
0.000181571
0.00017329
0.000161571
0.000144771
0.000121313
9.10612e-05
5.80293e-05
3.20801e-05
1.95872e-05
1.953e-05
2.18188e-05
2.20192e-05
3.71663e-05
6.86301e-05
0.000105263
0.000137763
0.000162146
0.000179209
0.000190747
0.00019849
0.000203721
0.000207258
0.000209592
0.000211016
0.000211692
0.000211691
0.000211014
0.000209589
0.000207253
0.000203718
0.000198489
0.000190751
0.00017922
0.000162163
0.000137781
0.000105269
6.86195e-05
3.71512e-05
2.20089e-05
2.18179e-05
2.39219e-05
2.4386e-05
4.21157e-05
7.8161e-05
0.0001172
0.000150625
0.000174885
0.000191385
0.000202194
0.000209143
0.000213583
0.00021641
0.000218176
0.000219208
0.000219684
0.000219683
0.000219206
0.000218173
0.000216406
0.00021358
0.000209141
0.000202195
0.00019139
0.000174894
0.000150633
0.000117199
7.8148e-05
4.21019e-05
2.4378e-05
2.39214e-05
2.57644e-05
2.65755e-05
4.67324e-05
8.65958e-05
0.000127929
0.000160983
0.000184359
0.000199823
0.000209635
0.000215694
0.000219372
0.000221579
0.000222878
0.000223598
0.000223919
0.000223919
0.000223596
0.000222875
0.000221576
0.000219369
0.000215692
0.000209635
0.000199824
0.000184362
0.000160987
0.000127927
8.65845e-05
4.67218e-05
2.65701e-05
2.57641e-05
2.73244e-05
2.85199e-05
5.10451e-05
9.37799e-05
0.000136328
0.000169037
0.000191372
0.000205685
0.000214464
0.00021967
0.000222678
0.000224379
0.000225317
0.000225807
0.000226016
0.000226016
0.000225806
0.000225315
0.000224376
0.000222675
0.000219668
0.000214462
0.000205685
0.000191374
0.00016904
0.000136327
9.37721e-05
5.10379e-05
2.85166e-05
2.73243e-05
2.85879e-05
3.01537e-05
5.47055e-05
9.96199e-05
0.000142872
0.000175107
0.000196455
0.000209715
0.000217576
0.000222057
0.000224524
0.000225839
0.000226517
0.000226847
0.000226981
0.00022698
0.000226846
0.000226515
0.000225837
0.000224522
0.000222055
0.000217575
0.000209715
0.000196457
0.000175111
0.000142875
9.96166e-05
5.47016e-05
3.01519e-05
2.85878e-05
2.9544e-05
3.14247e-05
5.75602e-05
0.000104161
0.000147743
0.000179473
0.000199985
0.000212394
0.000219533
0.00022346
0.000225529
0.000226573
0.000227075
0.000227302
0.000227388
0.000227388
0.000227301
0.000227074
0.000226571
0.000225528
0.000223459
0.000219533
0.000212396
0.000199989
0.000179479
0.00014775
0.000104163
5.75586e-05
3.14243e-05
2.95439e-05
3.01847e-05
3.22934e-05
5.95116e-05
0.000107224
0.000150965
0.000182297
0.000202211
0.000214029
0.000220677
0.000224236
0.000226047
0.000226921
0.000227318
0.000227484
0.000227543
0.000227542
0.000227483
0.000227316
0.00022692
0.000226046
0.000224236
0.000220679
0.000214032
0.000202217
0.000182306
0.000150975
0.000107227
5.95109e-05
3.22934e-05
3.01847e-05
3.05065e-05
3.27348e-05
6.05021e-05
0.000108764
0.000152567
0.000183683
0.000203286
0.000214803
0.000221204
0.00022458
0.000226266
0.000227059
0.000227406
0.000227545
0.000227591
0.000227591
0.000227544
0.000227405
0.000227058
0.000226266
0.000224581
0.000221207
0.000214808
0.000203293
0.000183693
0.000152578
0.000108767
6.05016e-05
3.27349e-05
3.05065e-05
3.05065e-05
3.27349e-05
6.05019e-05
0.000108763
0.000152566
0.000183681
0.000203284
0.000214801
0.000221202
0.000224579
0.000226265
0.000227058
0.000227406
0.000227545
0.000227591
0.000227591
0.000227544
0.000227405
0.000227057
0.000226265
0.00022458
0.000221206
0.000214807
0.000203293
0.000183693
0.000152577
0.000108767
6.05014e-05
3.27348e-05
3.05064e-05
3.01846e-05
3.22934e-05
5.9511e-05
0.000107224
0.000150961
0.000182291
0.000202204
0.000214023
0.000220672
0.000224232
0.000226045
0.00022692
0.000227317
0.000227484
0.000227543
0.000227543
0.000227484
0.000227316
0.000226919
0.000226045
0.000224234
0.000220676
0.00021403
0.000202214
0.000182304
0.000150974
0.000107228
5.95108e-05
3.22935e-05
3.01846e-05
2.95438e-05
3.14245e-05
5.75595e-05
0.000104161
0.000147737
0.000179462
0.000199974
0.000212384
0.000219525
0.000223454
0.000225525
0.000226571
0.000227075
0.000227303
0.000227389
0.000227389
0.000227303
0.000227075
0.000226571
0.000225527
0.000223457
0.00021953
0.000212393
0.000199986
0.000179477
0.00014775
0.000104165
5.75599e-05
3.14251e-05
2.95438e-05
2.85876e-05
3.01531e-05
5.4705e-05
9.96195e-05
0.000142863
0.000175092
0.00019644
0.000209702
0.000217566
0.000222051
0.000224521
0.000225838
0.000226518
0.00022685
0.000226984
0.000226984
0.00022685
0.000226518
0.000225839
0.000224523
0.000222055
0.000217573
0.000209713
0.000196455
0.00017511
0.000142878
9.96247e-05
5.47059e-05
3.01541e-05
2.85876e-05
2.73241e-05
2.85195e-05
5.10454e-05
9.37778e-05
0.000136317
0.000169021
0.000191356
0.000205672
0.000214455
0.000219665
0.000222677
0.000224381
0.000225322
0.000225814
0.000226024
0.000226024
0.000225814
0.000225323
0.000224382
0.00022268
0.00021967
0.000214462
0.000205684
0.000191371
0.000169039
0.000136332
9.37826e-05
5.10464e-05
2.85207e-05
2.7324e-05
2.57639e-05
2.65751e-05
4.67339e-05
8.65931e-05
0.000127917
0.000160968
0.000184345
0.000199812
0.00020963
0.000215693
0.000219376
0.000221587
0.000222888
0.000223611
0.000223934
0.000223934
0.000223612
0.00022289
0.000221589
0.00021938
0.000215699
0.000209638
0.000199823
0.000184359
0.000160984
0.00012793
8.65977e-05
4.67358e-05
2.65767e-05
2.57639e-05
2.39213e-05
2.43849e-05
4.21153e-05
7.81578e-05
0.000117187
0.000150611
0.000174876
0.00019138
0.000202195
0.000209149
0.000213594
0.000216425
0.000218195
0.00021923
0.000219708
0.000219708
0.000219231
0.000218197
0.000216428
0.000213598
0.000209155
0.000202202
0.000191389
0.000174887
0.000150624
0.000117198
7.81647e-05
4.21206e-05
2.43883e-05
2.39214e-05
2.18179e-05
2.20172e-05
3.71624e-05
6.8627e-05
0.000105238
0.000137749
0.000162141
0.000179212
0.000190757
0.000198506
0.000203742
0.000207283
0.000209621
0.000211048
0.000211726
0.000211727
0.00021105
0.000209624
0.000207287
0.000203747
0.000198512
0.000190763
0.000179219
0.000162149
0.000137757
0.000105246
6.86358e-05
3.71717e-05
2.20233e-05
2.18182e-05
1.95294e-05
1.95929e-05
3.20814e-05
5.80259e-05
9.09369e-05
0.000121254
0.000144742
0.000161567
0.000173307
0.000181601
0.000187581
0.000191871
0.000194839
0.000196712
0.000197619
0.00019762
0.000196714
0.000194843
0.000191876
0.000187586
0.000181608
0.000173314
0.000161575
0.00014475
0.000121257
9.09389e-05
5.80321e-05
3.20928e-05
1.96013e-05
1.953e-05
1.70302e-05
1.72622e-05
2.70951e-05
4.65287e-05
7.38795e-05
0.000100108
0.000121092
0.000136345
0.000147451
0.00015589
0.000162473
0.000167432
0.000170975
0.000173263
0.000174386
0.000174387
0.000173266
0.00017098
0.000167438
0.000162481
0.0001559
0.000147463
0.000136356
0.000121102
0.000100107
7.3864e-05
4.652e-05
2.71028e-05
1.72715e-05
1.70312e-05
1.43118e-05
1.49733e-05
2.20464e-05
3.49698e-05
5.4685e-05
7.44648e-05
9.02497e-05
0.000102284
0.00011179
0.000119819
0.000126674
0.00013187
0.000135661
0.00013815
0.000139386
0.000139387
0.000138154
0.000135668
0.00013188
0.000126687
0.000119836
0.000111812
0.000102303
9.02673e-05
7.44573e-05
5.46471e-05
3.49416e-05
2.20436e-05
1.49828e-05
1.43133e-05
1.14657e-05
1.26179e-05
1.72829e-05
2.46589e-05
3.53874e-05
4.64926e-05
5.59297e-05
6.40454e-05
7.12557e-05
7.76355e-05
8.30836e-05
8.74578e-05
9.07459e-05
9.29411e-05
9.40402e-05
9.40413e-05
9.29448e-05
9.07528e-05
8.74688e-05
8.31e-05
7.76592e-05
7.12869e-05
6.4082e-05
5.59606e-05
4.64945e-05
3.53492e-05
2.46219e-05
1.72742e-05
1.26234e-05
1.14656e-05
8.60809e-06
9.99085e-06
1.30065e-05
1.63163e-05
2.13738e-05
2.59763e-05
3.02948e-05
3.44109e-05
3.82713e-05
4.17504e-05
4.47576e-05
4.72382e-05
4.91362e-05
5.04206e-05
5.10694e-05
5.10697e-05
5.04226e-05
4.91396e-05
4.72446e-05
4.47677e-05
4.17659e-05
3.82928e-05
3.44383e-05
3.03219e-05
2.59918e-05
2.13587e-05
1.62913e-05
1.29894e-05
9.97339e-06
8.60797e-06
5.06919e-06
1.39513e-06
6.90933e-06
1.01371e-05
1.35745e-05
1.65721e-05
1.92196e-05
2.151e-05
2.34596e-05
2.51122e-05
2.65556e-05
2.77383e-05
2.86415e-05
2.92511e-05
2.95575e-05
2.95575e-05
2.92514e-05
2.86429e-05
2.77403e-05
2.65597e-05
2.5118e-05
2.34684e-05
2.15225e-05
1.92326e-05
1.65818e-05
1.35769e-05
1.01338e-05
6.91074e-06
1.39225e-06
5.06173e-06
3.54428e-06
6.03741e-06
8.63052e-06
1.09737e-05
1.33353e-05
1.55776e-05
1.76468e-05
1.94116e-05
2.09308e-05
2.22285e-05
2.336e-05
2.42744e-05
2.49628e-05
2.54228e-05
2.56532e-05
2.56532e-05
2.54229e-05
2.49629e-05
2.42746e-05
2.33603e-05
2.22291e-05
2.09317e-05
1.94131e-05
1.76493e-05
1.55812e-05
1.33398e-05
1.09772e-05
8.63323e-06
6.04646e-06
3.54331e-06
3.34331e-06
5.64865e-06
8.12046e-06
1.0353e-05
1.26279e-05
1.47805e-05
1.67716e-05
1.85073e-05
2.00477e-05
2.1399e-05
2.25133e-05
2.34108e-05
2.40885e-05
2.45426e-05
2.47703e-05
2.47703e-05
2.45426e-05
2.40885e-05
2.34107e-05
2.25131e-05
2.13988e-05
2.00477e-05
1.85077e-05
1.67722e-05
1.47808e-05
1.26289e-05
1.03553e-05
8.12235e-06
5.65058e-06
3.34359e-06
4.82327e-06
1.86344e-06
9.38371e-06
1.32235e-05
1.74328e-05
2.11024e-05
2.42648e-05
2.69132e-05
2.90765e-05
3.08479e-05
3.22358e-05
3.33235e-05
3.41317e-05
3.46718e-05
3.49425e-05
3.49425e-05
3.46719e-05
3.41321e-05
3.33236e-05
3.22366e-05
3.08501e-05
2.90814e-05
2.69213e-05
2.42738e-05
2.11095e-05
1.74414e-05
1.32277e-05
9.38634e-06
1.85822e-06
4.82044e-06
8.22448e-06
1.27865e-05
1.62744e-05
1.82291e-05
2.04207e-05
2.34917e-05
2.66981e-05
2.98081e-05
3.26973e-05
3.53312e-05
3.7649e-05
3.95524e-05
4.102e-05
4.20329e-05
4.25529e-05
4.25529e-05
4.20331e-05
4.10207e-05
3.95531e-05
3.76514e-05
3.53359e-05
3.27061e-05
2.9819e-05
2.67097e-05
2.35026e-05
2.04265e-05
1.82285e-05
1.62699e-05
1.27827e-05
8.2245e-06
1.08777e-05
1.60807e-05
2.00694e-05
2.17801e-05
2.71201e-05
3.39266e-05
4.04518e-05
4.64414e-05
5.1913e-05
5.68753e-05
6.1225e-05
6.4825e-05
6.75813e-05
6.94451e-05
7.03856e-05
7.03862e-05
6.94467e-05
6.7584e-05
6.4829e-05
6.12318e-05
5.68869e-05
5.1929e-05
4.64612e-05
4.04715e-05
3.39396e-05
2.71179e-05
2.17713e-05
2.00635e-05
1.60759e-05
1.08776e-05
1.35584e-05
1.90177e-05
2.2223e-05
2.72503e-05
3.81348e-05
5.23813e-05
6.53297e-05
7.59567e-05
8.45992e-05
9.18647e-05
9.79555e-05
0.000102847
0.000106521
0.000108968
0.000110191
0.000110192
0.000108971
0.000106527
0.000102857
9.79697e-05
9.1885e-05
8.46242e-05
7.59837e-05
6.53598e-05
5.24027e-05
3.81366e-05
2.72443e-05
2.22199e-05
1.90219e-05
1.3559e-05
1.61415e-05
2.15826e-05
2.48091e-05
3.44002e-05
5.20915e-05
7.34151e-05
9.24073e-05
0.00010723
0.000118497
0.000127249
0.000134142
0.000139467
0.000143367
0.000145925
0.000147192
0.000147194
0.00014593
0.000143375
0.00013948
0.00013416
0.000127276
0.000118532
0.000107272
9.24529e-05
7.34507e-05
5.21074e-05
3.4403e-05
2.48105e-05
2.1585e-05
1.61416e-05
1.86244e-05
2.38947e-05
2.80708e-05
4.22142e-05
6.60422e-05
9.26446e-05
0.000115611
0.00013326
0.000146268
0.000155858
0.000162992
0.000168258
0.000171992
0.00017439
0.000175564
0.000175565
0.000174394
0.000172
0.000168271
0.000163011
0.000155884
0.000146305
0.00013331
0.000115667
9.26914e-05
6.60721e-05
4.22243e-05
2.80744e-05
2.38981e-05
1.86245e-05
2.09336e-05
2.59629e-05
3.17025e-05
5.03162e-05
7.92292e-05
0.000109032
0.000134079
0.000153104
0.000166904
0.000176759
0.000183778
0.000188735
0.000192122
0.00019424
0.00019526
0.000195261
0.000194243
0.000192128
0.000188745
0.000183793
0.000176782
0.000166937
0.000153151
0.000134135
0.000109085
7.92637e-05
5.03265e-05
3.17057e-05
2.59654e-05
2.09336e-05
2.30029e-05
2.78552e-05
3.54893e-05
5.8049e-05
9.06797e-05
0.000122506
0.000148462
0.000167852
0.000181694
0.000191341
0.000197977
0.00020248
0.000205441
0.000207237
0.000208086
0.000208086
0.00020724
0.000205446
0.000202487
0.000197989
0.000191359
0.00018172
0.000167889
0.000148509
0.000122553
9.07093e-05
5.80581e-05
3.5491e-05
2.7856e-05
2.30029e-05
2.48309e-05
2.95887e-05
3.92487e-05
6.50664e-05
0.000100463
0.000133447
0.000159594
0.000178737
0.000192145
0.000201269
0.000207351
0.000211328
0.000213845
0.000215323
0.000216006
0.000216007
0.000215325
0.00021385
0.000211334
0.000207361
0.000201283
0.000192165
0.000178766
0.00015963
0.000133485
0.00010049
6.50763e-05
3.92516e-05
2.95895e-05
2.48309e-05
2.63917e-05
3.11172e-05
4.23042e-05
7.09347e-05
0.000108467
0.000142139
0.000168114
0.000186714
0.000199459
0.000207916
0.000213383
0.000216831
0.000218933
0.000220126
0.000220664
0.000220665
0.000220128
0.000218938
0.000216838
0.000213392
0.000207928
0.000199476
0.000186736
0.000168142
0.000142169
0.000108492
7.09463e-05
4.23077e-05
3.11181e-05
2.63917e-05
2.76639e-05
3.24095e-05
4.48827e-05
7.58225e-05
0.000114828
0.000148846
0.000174482
0.000192453
0.000204495
0.000212284
0.00021717
0.000220147
0.000221897
0.000222856
0.000223278
0.000223279
0.000222858
0.000221901
0.000220154
0.000217179
0.000212295
0.00020451
0.000192473
0.000174507
0.000148873
0.000114853
7.58369e-05
4.48869e-05
3.24103e-05
2.76639e-05
2.86315e-05
3.34159e-05
4.69207e-05
7.95768e-05
0.000119586
0.000153747
0.000179019
0.000196415
0.000207839
0.00021506
0.000219469
0.000222073
0.000223552
0.000224336
0.000224674
0.000224674
0.000224339
0.000223556
0.000222079
0.000219478
0.000215071
0.000207853
0.000196433
0.000179042
0.000153772
0.000119611
7.95928e-05
4.69252e-05
3.34171e-05
2.86315e-05
2.9283e-05
3.41066e-05
4.83308e-05
8.21418e-05
0.000122765
0.000156961
0.000181938
0.000198904
0.000209878
0.000216692
0.000220767
0.000223116
0.000224415
0.000225086
0.000225368
0.000225369
0.000225088
0.000224419
0.000223122
0.000220776
0.000216703
0.000209891
0.00019892
0.000181959
0.000156986
0.00012279
8.21579e-05
4.83352e-05
3.41077e-05
2.9283e-05
2.96104e-05
3.44582e-05
4.90508e-05
8.34308e-05
0.000124355
0.000158556
0.000183371
0.000200107
0.000210845
0.000217449
0.000221352
0.000223572
0.000224781
0.000225396
0.000225652
0.000225653
0.000225398
0.000224785
0.000223578
0.00022136
0.000217459
0.000210858
0.000200123
0.00018339
0.000158579
0.00012438
8.34464e-05
4.90548e-05
3.44591e-05
2.96104e-05
2.96105e-05
3.44594e-05
4.90546e-05
8.34385e-05
0.000124365
0.000158567
0.00018338
0.000200114
0.00021085
0.000217452
0.000221354
0.000223573
0.000224781
0.000225396
0.000225652
0.000225653
0.000225399
0.000224785
0.000223578
0.000221362
0.000217462
0.000210862
0.000200129
0.000183398
0.000158588
0.000124388
8.34535e-05
4.90584e-05
3.446e-05
2.96106e-05
2.92835e-05
3.41099e-05
4.83422e-05
8.21648e-05
0.000122795
0.000156993
0.000181966
0.000198925
0.000209894
0.000216703
0.000220774
0.00022312
0.000224417
0.000225087
0.000225369
0.00022537
0.000225089
0.00022442
0.000223125
0.000220781
0.000216712
0.000209904
0.000198938
0.000181982
0.000157012
0.000122817
8.21796e-05
4.83461e-05
3.41107e-05
2.92835e-05
2.86322e-05
3.34209e-05
4.6939e-05
7.96157e-05
0.000119637
0.000153799
0.000179066
0.000196451
0.000207865
0.000215077
0.000219479
0.000222078
0.000223554
0.000224337
0.000224673
0.000224674
0.000224339
0.000223557
0.000222083
0.000219485
0.000215084
0.000207874
0.000196462
0.00017908
0.000153818
0.000119658
7.96304e-05
4.69435e-05
3.34221e-05
2.86323e-05
2.7665e-05
3.24153e-05
4.49063e-05
7.58751e-05
0.000114898
0.000148918
0.000174547
0.000192504
0.00020453
0.000212305
0.000217181
0.000220152
0.000221897
0.000222853
0.000223274
0.000223275
0.000222855
0.0002219
0.000220156
0.000217187
0.000212312
0.000204537
0.000192513
0.000174561
0.000148937
0.000114919
7.58903e-05
4.49117e-05
3.24172e-05
2.7665e-05
2.63931e-05
3.11232e-05
4.23308e-05
7.09932e-05
0.000108552
0.00014223
0.000168196
0.000186777
0.000199501
0.000207939
0.000213392
0.00021683
0.000218927
0.000220116
0.000220653
0.000220653
0.000220118
0.000218929
0.000216834
0.000213396
0.000207944
0.000199507
0.000186785
0.000168209
0.000142251
0.000108575
7.10082e-05
4.23366e-05
3.11257e-05
2.63932e-05
2.48327e-05
2.95936e-05
3.92752e-05
6.51346e-05
0.000100565
0.00013356
0.000159694
0.000178812
0.00019219
0.000201289
0.000207352
0.000211315
0.000213825
0.000215299
0.00021598
0.000215981
0.0002153
0.000213827
0.000211318
0.000207355
0.000201291
0.000192194
0.000178818
0.000159707
0.000133582
0.000100589
6.51485e-05
3.92808e-05
2.95961e-05
2.48328e-05
2.3005e-05
2.78569e-05
3.55161e-05
5.81245e-05
9.08025e-05
0.000122643
0.00014858
0.000167934
0.000181736
0.00019135
0.000197962
0.000202448
0.000205401
0.000207192
0.000208038
0.000208038
0.000207192
0.000205402