/*--------------------------------*- C++ -*----------------------------------*\
| =========                 |                                                 |
| \\      /  F ield         | OpenFOAM: The Open Source CFD Toolbox           |
|  \\    /   O peration     | Version:  2312                                  |
|   \\  /    A nd           | Website:  www.openfoam.com                      |
|    \\/     M anipulation  |                                                 |
\*---------------------------------------------------------------------------*/
FoamFile
{
    version     2.0;
    format      ascii;
    arch        "LSB;label=32;scalar=64";
    class       surfaceScalarField;
    location    "50";
    object      phi;
}
// * * * * * * * * * * * * * * * * * * * * * * * * * * * * * * * * * * * * * //

dimensions      [1 0 -1 0 0 0 0];

oriented        oriented;

internalField   nonuniform List<scalar> 
78300
(
0.000147749
0.000140428
0.00747121
0.00337826
0.000900493
0.00970705
0.00357352
0.0045219
0.0149202
0.00397545
0.00521346
0.0195096
0.0042015
0.00596202
0.0240821
0.00423249
0.00660044
0.0284129
0.00413045
0.00709555
0.0324272
0.0038921
0.00750282
0.0361103
0.00353714
0.00779793
0.0394416
0.00308619
0.0080151
0.0423661
0.00255826
0.00817861
0.0448441
0.00197134
0.0082981
0.0468528
0.00133927
0.00838374
0.0483744
0.000673787
0.008442
0.0493958
-7.45997e-06
0.00846959
0.0499086
-0.000687047
0.00846792
0.0499086
-0.00134881
0.00843834
0.0493958
-0.00197376
0.00837676
0.0483742
-0.00254234
0.00828001
0.0468525
-0.00304654
0.00815534
0.0448437
-0.00346393
0.00798233
0.0423653
-0.00377597
0.00775626
0.0394403
-0.00396003
0.00745031
0.0361086
-0.00403109
0.00706706
0.0324247
-0.00396181
0.0065649
0.0284102
-0.00375204
0.00598043
0.02408
-0.0034335
0.00529813
0.0195083
-0.00326246
0.00454598
0.0149203
-0.000178393
0.00104567
0.00970833
0.000109406
0.00747159
0.00256151
0.00495442
0.0096462
0.0048241
0.00373482
0.0177927
0.00615198
0.00683249
0.0248496
0.00658429
0.00791949
0.0306473
0.00676573
0.00864745
0.0358861
0.00678108
0.00922077
0.0407264
0.00660773
0.00968599
0.0451703
0.00625788
0.0100576
0.0492001
0.005719
0.0103361
0.0527944
0.00500796
0.0105382
0.0559224
0.00416021
0.0106791
0.058558
0.00320488
0.0107781
0.0606841
0.00217368
0.0108439
0.062288
0.00109868
0.0108827
0.0633617
1.56524e-06
0.0109008
0.0638998
-0.00109829
0.0109019
0.0638998
-0.00217522
0.010881
0.0633616
-0.0032082
0.0108389
0.0622879
-0.00417469
0.0107714
0.0606838
-0.00503448
0.0106684
0.0585575
-0.00576529
0.0105261
0.0559216
-0.0063261
0.0103176
0.0527932
-0.00670408
0.0100349
0.0491984
-0.00688105
0.00966325
0.0451681
-0.00689717
0.00921861
0.0407245
-0.00670311
0.00865349
0.0358858
-0.00624312
0.00797492
0.0306489
-0.0050294
0.0069667
0.0248536
-0.00263746
0.00374416
0.0177992
0.00484732
0.00964633
0.00678065
0.00466307
0.0197773
0.0095153
0.00572123
0.0272057
0.0102966
0.00834056
0.0350378
0.0101365
0.00924221
0.041275
0.00965792
0.00977749
0.0465782
0.0090842
0.0101607
0.05131
0.00844016
0.0104836
0.0555991
0.00770733
0.0107633
0.0594631
0.0068655
0.010992
0.0628916
0.00590953
0.0111705
0.0658668
0.00484936
0.0113004
0.0683715
0.00370751
0.0113896
0.0703907
0.00250596
0.0114475
0.0719139
0.00126368
0.0114823
0.0729335
1.1638e-06
0.0114985
0.0734445
-0.00125932
0.0114975
0.0734445
-0.00250355
0.0114826
0.0729334
-0.00371132
0.0114487
0.0719139
-0.00486031
0.0113902
0.0703907
-0.00593292
0.0113022
0.0683713
-0.00690106
0.0111708
0.0658666
-0.00775871
0.0109897
0.0628913
-0.00850689
0.0107565
0.0594626
-0.00915727
0.0104678
0.0555985
-0.00972192
0.0101497
0.0513098
-0.0101858
0.00976777
0.0465791
-0.0103368
0.00928559
0.041278
-0.00949212
0.00840676
0.0350424
-0.00688104
0.00585022
0.0272096
0.0044557
0.0197772
0.00715222
0.00511649
0.0277667
0.0103189
0.00663368
0.036751
0.0112499
0.00891267
0.0445347
0.0111147
0.00967664
0.0506669
0.0105496
0.010095
0.0558352
0.0098083
0.0103772
0.060401
0.00897783
0.0106096
0.0645124
0.0080824
0.0108136
0.0682058
0.00711333
0.0109973
0.0714783
0.00606952
0.0111496
0.0743164
0.0049516
0.0112693
0.0767055
0.00377086
0.0113543
0.0786323
0.00254089
0.0114115
0.0800864
0.00127874
0.0114453
0.08106
5.98912e-07
0.011461
0.0815481
-0.00127833
0.0114609
0.0815481
-0.00254194
0.0114471
0.08106
-0.00377252
0.0114133
0.0800864
-0.00495733
0.011359
0.0786323
-0.00607768
0.0112736
0.0767055
-0.00712529
0.0111536
0.0743164
-0.0080952
0.0109958
0.0714783
-0.00898967
0.0108058
0.0682058
-0.00981849
0.0105921
0.0645124
-0.0105511
0.0103573
0.0604011
-0.0111198
0.0100881
0.0558359
-0.0112363
0.00969951
0.0506687
-0.0103423
0.00901302
0.0445375
-0.00715403
0.00673926
0.0367529
0.00490794
0.027766
0.00815344
0.00524878
0.0359329
0.0111169
0.00719849
0.0459538
0.0117793
0.00910818
0.0536466
0.0115492
0.00969103
0.0594735
0.0109328
0.0100128
0.0644139
0.0101265
0.01023
0.0688056
0.00922026
0.0103986
0.0727622
0.00824141
0.0105522
0.0763126
0.00720378
0.0106945
0.0794554
0.00610843
0.010821
0.0821797
0.00496108
0.0109239
0.0844725
0.00376559
0.0110022
0.0863218
0.00253247
0.0110559
0.0877176
0.00127307
0.0110887
0.0886524
2.74622e-07
0.0111041
0.089121
-0.00127339
0.0111049
0.089121
-0.00253192
0.0110896
0.0886524
-0.00376613
0.0110588
0.0877176
-0.00496024
0.0110054
0.0863218
-0.00610665
0.0109272
0.0844725
-0.00719808
0.0108211
0.0821797
-0.00823188
0.0106892
0.0794555
-0.00920485
0.0105385
0.0763126
-0.0101079
0.0103779
0.0727623
-0.0109109
0.0102068
0.0688057
-0.0115326
0.0100109
0.0644142
-0.0117754
0.00972603
0.0594741
-0.0111133
0.00920815
0.0536473
-0.00815437
0.00730872
0.0459537
0.0050408
0.0359314
0.00886374
0.00516905
0.0439046
0.0116786
0.00740252
0.0547489
0.0121319
0.00900931
0.0622601
0.0117803
0.00944988
0.0677948
0.0111059
0.00968172
0.0725099
0.0102674
0.00983468
0.0767312
0.00932209
0.00995923
0.0805433
0.00830406
0.0100732
0.0839643
0.00723009
0.0101817
0.0869914
0.00610893
0.0102817
0.0896145
0.00494513
0.0103672
0.0918217
0.00374461
0.0104345
0.0936019
0.00251441
0.0104824
0.0949456
0.00126283
0.0105129
0.0958455
5.41716e-07
0.0105272
0.0962966
-0.00126116
0.0105274
0.0962966
-0.00251259
0.0105136
0.0958455
-0.00374151
0.010484
0.0949456
-0.00494
0.0104357
0.0936019
-0.00610061
0.0103672
0.0918217
-0.0072177
0.0102777
0.0896146
-0.00828745
0.0101721
0.0869915
-0.00930225
0.0100562
0.0839643
-0.0102469
0.00993783
0.0805433
-0.011092
0.00981801
0.0767313
-0.0117689
0.00968219
0.0725099
-0.0121256
0.00948996
0.0677948
-0.0116585
0.00909575
0.0622598
-0.00882749
0.00749794
0.0547475
0.00499954
0.0439024
0.00934416
0.00494411
0.051551
0.0120179
0.00728511
0.0630207
0.0123321
0.00864797
0.0703071
0.0119056
0.00898345
0.0755856
0.0111919
0.00914275
0.0801027
0.0103235
0.00924732
0.0841645
0.00935763
0.00933223
0.0878401
0.00832087
0.0094141
0.0911408
0.0072296
0.0094954
0.0940617
0.00609511
0.00957222
0.0965925
0.00492396
0.00964044
0.0987219
0.00372261
0.00969547
0.100439
0.00249633
0.00973654
0.101735
0.00125333
0.00976275
0.102604
1.46958e-06
0.00977541
0.103039
-0.00125037
0.00977553
0.103039
-0.00249279
0.00976288
0.102604
-0.00371719
0.00973627
0.101735
-0.00491682
0.00969488
0.100439
-0.0060848
0.00963733
0.0987219
-0.00721682
0.00956568
0.0965925
-0.00830603
0.00948369
0.0940617
-0.0093437
0.00939797
0.0911409
-0.0103138
0.00931497
0.0878401
-0.0111869
0.00923549
0.0841645
-0.0119064
0.00914895
0.0801027
-0.0123266
0.00901724
0.0755855
-0.0119934
0.00871586
0.0703067
-0.0092892
0.0073514
0.0630194
0.00483126
0.0515493
0.00967537
0.00460161
0.0587245
0.0122077
0.00689673
0.0706622
0.0124321
0.00804959
0.0777126
0.011963
0.00831113
0.0827706
0.0112227
0.0084209
0.0871157
0.0103398
0.00848637
0.0910331
0.00936161
0.00854237
0.0945829
0.00831472
0.00859913
0.0977729
0.0072162
0.00865745
0.100597
0.00607629
0.00871508
0.103043
0.00490326
0.00876739
0.105102
0.00370268
0.00881137
0.106763
0.00248146
0.00884432
0.108016
0.00124541
0.00886624
0.108855
1.9811e-06
0.00887675
0.109276
-0.00124128
0.00887671
0.109276
-0.00247638
0.00886542
0.108855
-0.00369685
0.0088433
0.108016
-0.00489544
0.00880878
0.106763
-0.00606717
0.00876297
0.105102
-0.00720616
0.00870761
0.103043
-0.00830556
0.0086466
0.100597
-0.00935499
0.00858553
0.0977729
-0.0103381
0.00853001
0.0945829
-0.0112273
0.00848086
0.0910331
-0.0119681
0.00842761
0.0871157
-0.0124297
0.00833735
0.0827705
-0.0121835
0.00809593
0.0777123
-0.00962838
0.00694133
0.0706612
0.00453689
0.0587234
0.00991337
0.00415804
0.0652824
0.0123089
0.00628593
0.0775741
0.012466
0.00724835
0.0843999
0.0119712
0.00745584
0.0892685
0.0112202
0.00753101
0.0934642
0.0103287
0.00757234
0.0972536
0.00934546
0.00760726
0.100691
0.00829598
0.00764464
0.103781
0.00719539
0.0076857
0.106517
0.00605505
0.00772745
0.108889
0.00488274
0.00776668
0.110885
0.00368553
0.00780002
0.112495
0.00246862
0.00782617
0.11371
0.00123884
0.00784337
0.114524
2.21601e-06
0.00785193
0.114932
-0.00123391
0.00785138
0.114932
-0.00246364
0.0078425
0.114524
-0.0036795
0.00782411
0.11371
-0.00487632
0.00779703
0.112495
-0.00604818
0.00776179
0.110885
-0.00718914
0.00772059
0.108889
-0.00829147
0.00767657
0.106517
-0.00934503
0.0076351
0.103781
-0.0103327
0.0075993
0.100691
-0.0112277
0.00757028
0.0972537
-0.0119791
0.00753805
0.0934642
-0.0124655
0.00747373
0.0892684
-0.0122912
0.00727774
0.0843997
-0.00987805
0.00631344
0.0775734
0.00412931
0.0652817
0.0100893
0.00362367
0.0711106
0.0123611
0.00549198
0.0836694
0.0124623
0.00627998
0.0902925
0.0119505
0.00644311
0.0950004
0.0111922
0.00649736
0.0990678
0.0102993
0.00652223
0.102746
0.00931657
0.00654353
0.106085
0.0082682
0.00656777
0.109088
0.00716977
0.00659578
0.111749
0.00603203
0.00662529
0.114054
0.00486312
0.00665382
0.115995
0.00366942
0.00667883
0.117561
0.00245748
0.00669852
0.118743
0.00123306
0.00671173
0.119534
2.31218e-06
0.00671839
0.119931
-0.00122843
0.00671783
0.119931
-0.00245263
0.00671063
0.119534
-0.0036644
0.00669628
0.118743
-0.00485802
0.00667576
0.117561
-0.00602743
0.00664943
0.115995
-0.00716641
0.00661967
0.114054
-0.00826735
0.00658914
0.111749
-0.00931876
0.00656126
0.109088
-0.0103053
0.00653937
0.106085
-0.0112006
0.00652258
0.102746
-0.0119578
0.00650316
0.0990678
-0.0124631
0.00645452
0.0950004
-0.0123485
0.0062961
0.0902925
-0.0100661
0.00550927
0.0836691
0.00361846
0.0711103
0.0102242
0.00300596
0.0761124
0.0123851
0.00455417
0.0888713
0.0124396
0.00517662
0.0953205
0.0119125
0.0053021
0.0998947
0.0111518
0.00534086
0.103855
0.0102596
0.00535696
0.10744
0.00928004
0.0053697
0.110696
0.00823581
0.00538537
0.113625
0.00714203
0.00540405
0.11622
0.00600858
0.00542495
0.118471
0.00484403
0.0054452
0.120365
0.00365496
0.00546348
0.121893
0.00244766
0.00547802
0.123047
0.00122782
0.00548816
0.12382
2.16008e-06
0.00549284
0.124208
-0.00122376
0.00549254
0.124208
-0.00244321
0.00548668
0.12382
-0.00365092
0.00547618
0.123047
-0.00484019
0.0054606
0.121893
-0.00600568
0.00544173
0.120365
-0.00714039
0.00542059
0.118471
-0.00823634
0.00539958
0.11622
-0.00928328
0.00538155
0.113625
-0.0102653
0.00536796
0.110696
-0.0111585
0.00535838
0.10744
-0.0119183
0.00534561
0.103855
-0.0124409
0.00530912
0.0998947
-0.0123775
0.00518383
0.0953204
-0.0102097
0.00456478
0.0888711
0.00301539
0.0761122
0.0103255
0.00231715
0.080208
0.0123939
0.00350563
0.0931142
0.0124105
0.0039673
0.0994218
0.0118706
0.00405972
0.103889
0.0111072
0.00408677
0.107762
0.0102176
0.00409742
0.111272
0.00924232
0.00410557
0.11446
0.0082036
0.00411582
0.11733
0.00711488
0.00412888
0.119873
0.0059869
0.00414326
0.122079
0.00482698
0.00415793
0.123935
0.00364231
0.0041711
0.125433
0.00243906
0.00418182
0.126564
0.0012236
0.0041892
0.127322
1.77911e-06
0.00419274
0.127702
-0.00121993
0.00419234
0.127702
-0.00243576
0.00418808
0.127322
-0.00363896
0.00417993
0.126564
-0.00482422
0.00416881
0.125433
-0.00598478
0.00415509
0.123935
-0.00711416
0.00414028
0.122079
-0.0082044
0.00412593
0.119873
-0.00924494
0.0041138
0.11733
-0.0102218
0.00410544
0.11446
-0.011112
0.00409935
0.111272
-0.0118745
0.00409062
0.107762
-0.0124111
0.00406347
0.103889
-0.0123905
0.00397044
0.0994218
-0.0103179
0.00351213
0.0931141
0.00233435
0.0802079
0.0103991
0.00157189
0.0833345
0.0123968
0.00237575
0.0963442
0.0123825
0.00268159
0.102545
0.0118328
0.00274155
0.106931
0.0110675
0.00275938
0.110739
0.0101804
0.00276625
0.114192
0.00920956
0.00277219
0.117329
0.00817585
0.00277958
0.120154
0.00709257
0.00278898
0.122657
0.00596908
0.00279955
0.124829
0.00481346
0.00281018
0.126657
0.00363248
0.00281983
0.128132
0.00243262
0.00282773
0.129246
0.00122022
0.0028331
0.129992
1.41594e-06
0.00283576
0.130366
-0.00121736
0.00283533
0.130366
-0.00242982
0.00283205
0.129992
-0.00363001
0.00282616
0.129246
-0.00481132
0.00281788
0.128132
-0.0059676
0.00280799
0.126657
-0.00709182
0.0027973
0.124829
-0.00817626
0.00278718
0.122657
-0.00921124
0.00277882
0.120154
-0.0101828
0.00277282
0.117329
-0.0110704
0.00276858
0.114192
-0.0118349
0.00276245
0.110739
-0.0123833
0.00274397
0.106931
-0.0123948
0.00268194
0.102545
-0.0103958
0.00238097
0.0963442
0.00159249
0.0833344
0.0104475
0.000787371
0.0854446
0.0123968
0.00119317
0.0985205
0.0123623
0.00134481
0.104649
0.0118052
0.00137371
0.108982
0.0110392
0.00138241
0.112746
0.0101539
0.00138705
0.11616
0.00918673
0.00139173
0.119264
0.00815702
0.00139799
0.122058
0.00707757
0.00140543
0.124535
0.00595761
0.00141365
0.126683
0.00480494
0.00142166
0.128492
0.0036264
0.00142893
0.129952
0.00242867
0.00143475
0.131054
0.00121809
0.00143871
0.131793
1.20652e-06
0.00144052
0.132163
-0.00121588
0.00144029
0.132163
-0.00242657
0.00143776
0.131793
-0.00362447
0.00143334
0.131054
-0.00480318
0.00142715
0.129952
-0.00595624
0.00141986
0.128492
-0.00707672
0.00141192
0.126683
-0.0081568
0.00140424
0.124535
-0.0091871
0.00139781
0.122058
-0.0101549
0.00139298
0.119264
-0.0110403
0.0013895
0.11616
-0.0118062
0.0013853
0.112746
-0.0123626
0.00137546
0.108982
-0.0123962
0.00134426
0.104649
-0.0104461
0.00119768
0.0985205
0.000809344
0.0854446
0.0104716
-1.74274e-05
0.0865075
0.012397
-1.58537e-05
0.0996156
0.0123525
-1.75808e-05
0.105708
0.0117925
-1.95945e-05
0.110014
0.0110261
-1.94674e-05
0.113756
0.0101424
-1.68939e-05
0.117151
0.00917718
-1.2421e-05
0.120238
0.00814976
-6.65233e-06
0.123017
0.00707224
-5.04971e-08
0.12548
0.00595393
6.65416e-06
0.127617
0.00480241
1.2974e-05
0.129416
0.00362472
1.84651e-05
0.130869
0.00242764
2.26037e-05
0.131965
0.00121746
2.5551e-05
0.1327
7.76659e-07
2.67721e-05
0.133068
-0.00121579
2.64238e-05
0.133068
-0.00242602
2.46451e-05
0.1327
-0.00362314
2.1239e-05
0.131965
-0.00480098
1.68265e-05
0.130869
-0.0059525
1.11726e-05
0.129416
-0.00707097
5.07686e-06
0.127617
-0.00814872
-1.02619e-06
0.12548
-0.0091764
-6.56051e-06
0.123017
-0.0101419
-1.09237e-05
0.120238
-0.0110258
-1.42374e-05
0.117151
-0.0117924
-1.62892e-05
0.113756
-0.0123525
-1.78351e-05
0.110014
-0.0123969
-1.8129e-05
0.105708
-0.0104713
-1.15817e-05
0.0996155
4.89885e-06
0.0865075
0.0104719
-0.000822436
0.0865075
0.0123986
-0.00122609
0.0996155
0.0123548
-0.00138058
0.105708
0.011796
-0.00141412
0.110014
0.0110306
-0.00142216
0.113756
0.0101475
-0.00142142
0.117151
0.00918274
-0.001417
0.120238
0.00815531
-0.00141126
0.123017
0.00707751
-0.00140524
0.12548
0.00595856
-0.00139969
0.127617
0.00480624
-0.00139491
0.129416
0.00362773
-0.00139117
0.130869
0.00242935
-0.00138824
0.131965
0.00121826
-0.0013867
0.1327
4.84031e-07
-0.00138588
0.133068
-0.00121726
-0.00138626
0.133068
-0.00242835
-0.0013876
0.1327
-0.00362655
-0.00138979
0.131965
-0.00480486
-0.00139301
0.130869
-0.00595701
-0.00139687
0.129416
-0.00707572
-0.00140152
0.127617
-0.00815332
-0.00140642
0.12548
-0.00918067
-0.00141124
0.123017
-0.0101455
-0.00141548
0.120238
-0.0110289
-0.0014184
0.117151
-0.0117948
-0.00141854
0.113756
-0.0123546
-0.00141138
0.110014
-0.0123988
-0.00138059
0.105708
-0.0104724
-0.00122151
0.0996154
-0.000800551
0.0865074
0.0104486
-0.00160784
0.0854444
0.0124006
-0.00241106
0.0985202
0.0123698
-0.00272074
0.104649
0.0118157
-0.00278474
0.108982
0.0110524
-0.00280166
0.112746
0.0101691
-0.00280251
0.11616
0.00920289
-0.00279831
0.119264
0.00817315
-0.00279275
0.122058
0.00709274
-0.00278778
0.124535
0.00597103
-0.00278381
0.126683
0.00481594
-0.00278099
0.128492
0.00363464
-0.00277928
0.129952
0.00243398
-0.00277828
0.131054
0.00122015
-0.00277782
0.131793
1.35932e-07
-0.00277797
0.132163
-0.00121994
-0.00277829
0.132163
-0.00243351
-0.00277899
0.131793
-0.00363395
-0.00278004
0.131054
-0.00481486
-0.00278152
0.129952
-0.0059693
-0.00278359
0.128492
-0.00709046
-0.00278619
0.126683
-0.00817022
-0.00278962
0.124535
-0.0091994
-0.00279329
0.122058
-0.0101654
-0.00279695
0.119264
-0.0110489
-0.00279928
0.11616
-0.0118134
-0.00279695
0.112746
-0.0123686
-0.00278077
0.108982
-0.0124014
-0.00271876
0.104649
-0.0104503
-0.00240556
0.0985202
-0.00158753
0.0854443
0.0104001
-0.00235371
0.0833341
0.0124026
-0.00354523
0.0963437
0.0123943
-0.00401198
0.102544
0.0118499
-0.00410772
0.106931
0.0110891
-0.00413324
0.110739
0.0102048
-0.00413626
0.114192
0.00923524
-0.00413282
0.117329
0.00820121
-0.00412853
0.120154
0.00711593
-0.00412561
0.122657
0.00598948
-0.0041245
0.124829
0.00483021
-0.00412504
0.126657
0.00364475
-0.00412604
0.128132
0.00244031
-0.00412777
0.129246
0.00122316
-0.00412914
0.129992
-3.32698e-07
-0.00413023
0.130366
-0.00122372
-0.00413065
0.130366
-0.00244065
-0.00413053
0.129992
-0.00364475
-0.00412987
0.129246
-0.00482947
-0.00412902
0.128132
-0.00598799
-0.0041284
0.126657
-0.00711329
-0.00412804
0.124829
-0.0081973
-0.00412871
0.122657
-0.00923018
-0.00413022
0.120154
-0.010199
-0.0041322
0.117329
-0.0110835
-0.0041328
0.114192
-0.0118457
-0.00412715
0.110739
-0.0123928
-0.00410114
0.106931
-0.0124045
-0.00400659
0.102544
-0.0104039
-0.00353766
0.0963436
-0.00233709
0.0833339
0.0103241
-0.00304053
0.0802075
0.0124008
-0.00460139
0.0931134
0.0124256
-0.0052288
0.0994211
0.0118938
-0.00535765
0.103888
0.0111358
-0.00539224
0.107762
0.0102498
-0.00539905
0.111272
0.00927533
-0.0053975
0.11446
0.00823534
-0.00539665
0.11733
0.00714387
-0.0053979
0.119873
0.00601165
-0.00540188
0.122079
0.00484662
-0.00540715
0.123935
0.0036567
-0.00541314
0.125433
0.00244774
-0.00541823
0.126564
0.00122659
-0.00542238
0.127322
-8.11851e-07
-0.00542473
0.127702
-0.00122803
-0.00542533
0.127702
-0.00244912
-0.00542383
0.127322
-0.00365751
-0.00542091
0.126564
-0.00484671
-0.00541682
0.125433
-0.00601059
-0.00541167
0.123935
-0.00714109
-0.00540714
0.122079
-0.00823068
-0.00540288
0.119873
-0.00926858
-0.00540042
0.11733
-0.0102414
-0.00539846
0.11446
-0.0111276
-0.00539552
0.111272
-0.0118871
-0.0053846
0.107762
-0.0124237
-0.00534622
0.103888
-0.0124049
-0.00521737
0.0994211
-0.0103332
-0.00458876
0.0931134
-0.00303285
0.0802073
0.0102182
-0.00365164
0.0761117
0.0123903
-0.00554938
0.0888703
0.0124579
-0.00634442
0.0953195
0.0119404
-0.0065074
0.0998939
0.011186
-0.00655446
0.103854
0.0102967
-0.00656671
0.107439
0.00931721
-0.00657108
0.110695
0.00827028
-0.00657612
0.113625
0.00717215
-0.00658512
0.11622
0.00603364
-0.00659707
0.118471
0.00486354
-0.00661018
0.120365
0.00366855
-0.00662255
0.121893
0.00245537
-0.00663284
0.123047
0.00123009
-0.0066405
0.12382
-1.26812e-06
-0.00664457
0.124208
-0.0012327
-0.00664511
0.124208
-0.00245765
-0.00664227
0.12382
-0.00367053
-0.00663583
0.123047
-0.00486473
-0.00662702
0.121893
-0.00603351
-0.00661602
0.120365
-0.00717011
-0.00660425
0.118471
-0.00826532
-0.00659303
0.11622
-0.00930891
-0.00658323
0.113625
-0.010286
-0.00657446
0.110695
-0.0111743
-0.00656416
0.107439
-0.0119314
-0.00654413
0.103854
-0.0124553
-0.00648949
0.0998939
-0.0123986
-0.00632205
0.0953195
-0.0102357
-0.00552749
0.0888702
-0.00366128
0.0761116
0.0100773
-0.00417339
0.07111
0.0123625
-0.0063556
0.0836683
0.0124816
-0.00732947
0.0902914
0.0119807
-0.00753003
0.0949993
0.0112293
-0.00759423
0.0990669
0.0103376
-0.00761737
0.102746
0.00935247
-0.00763198
0.106085
0.00829989
-0.0076485
0.109088
0.00719615
-0.00766958
0.111748
0.00605261
-0.00769335
0.114054
0.00487797
-0.00771728
0.115995
0.00367922
-0.0077387
0.117561
0.00246254
-0.00775578
0.118743
0.00123331
-0.00776736
0.119534
-1.74952e-06
-0.00777383
0.119931
-0.00123685
-0.00777433
0.119931
-0.00246608
-0.00776914
0.119534
-0.00368248
-0.00775906
0.118743
-0.00488101
-0.00774339
0.117561
-0.00605422
-0.00772456
0.115995
-0.00719573
-0.00770255
0.114054
-0.008296
-0.00768096
0.111748
-0.00934447
-0.00765971
0.109088
-0.0103252
-0.00763979
0.106085
-0.0112148
-0.00761686
0.102746
-0.0119694
-0.00758079
0.0990669
-0.0124795
-0.0075028
0.0949993
-0.012379
-0.00728842
0.0902913
-0.010107
-0.00632047
0.0836682
-0.00421243
0.0711097
0.00989016
-0.00459306
0.0652817
0.0123053
-0.00698485
0.0775728
0.0124827
-0.00814952
0.0843984
0.0120022
-0.00839827
0.0892672
0.0112545
-0.0084865
0.0934632
0.0103621
-0.00852977
0.0972529
0.00937424
-0.00856193
0.10069
0.00831827
-0.0085962
0.103781
0.00721148
-0.008635
0.106517
0.00606573
-0.00867555
0.108889
0.00488941
-0.00871404
0.110885
0.00368831
-0.00874626
0.112495
0.0024687
-0.00877132
0.11371
0.0012367
-0.00878811
0.114524
-2.19972e-06
-0.00879649
0.114932
-0.00124103
-0.00879705
0.114932
-0.00247337
-0.00878956
0.114524
-0.00369326
-0.00877431
0.11371
-0.00489416
-0.00875115
0.112495
-0.00607051
-0.00872129
0.110885
-0.00721433
-0.00868669
0.108889
-0.00831775
-0.00864976
0.106517
-0.00936839
-0.00861275
0.103781
-0.0103507
-0.00857531
0.10069
-0.0112393
-0.00853303
0.0972529
-0.0119888
-0.00847125
0.0934632
-0.012483
-0.00835727
0.0892671
-0.0123296
-0.00808444
0.0843984
-0.00993647
-0.00692764
0.0775728
-0.0046782
0.0652815
0.00963891
-0.00489849
0.0587239
0.0121959
-0.00739656
0.0706609
0.0124446
-0.0087706
0.077711
0.0119887
-0.00908236
0.0827691
0.0112502
-0.00920899
0.0871145
0.0103612
-0.00928385
0.0910323
0.00937509
-0.00934333
0.0945824
0.00832122
-0.00940396
0.0977726
0.0072167
-0.00946691
0.100596
0.00607312
-0.00952912
0.103043
0.00489751
-0.00958468
0.105102
0.0036968
-0.00963044
0.106763
0.00247565
-0.00966384
0.108016
0.00124019
-0.00968543
0.108856
-2.32043e-06
-0.00969629
0.109277
-0.00124506
-0.00969661
0.109277
-0.0024807
-0.00968669
0.108856
-0.00370302
-0.00966567
0.108016
-0.00490462
-0.00963446
0.106763
-0.00608063
-0.00959152
0.105102
-0.00722374
-0.00954073
0.103043
-0.00832598
-0.00948396
0.100596
-0.00937517
-0.00942517
0.0977726
-0.0103539
-0.00936408
0.0945824
-0.0112372
-0.00929284
0.0910322
-0.0119754
-0.00919391
0.0871145
-0.0124459
-0.00902679
0.0827691
-0.0122283
-0.00867438
0.077711
-0.00969837
-0.00731246
0.0706611
-0.00504313
0.0587239
0.0092975
-0.00507602
0.0515502
0.0119994
-0.00754082
0.0630194
0.0123403
-0.0091571
0.0703055
0.0119221
-0.00955564
0.0755841
0.0112035
-0.00974183
0.0801015
0.0103259
-0.00986122
0.0841637
0.0093504
-0.0099603
0.0878397
0.00830613
-0.0100554
0.0911408
0.00721117
-0.0101497
0.0940619
0.00607553
-0.0102378
0.0965928
0.00490579
-0.0103132
0.0987223
0.00370672
-0.0103722
0.10044
0.00248417
-0.0104138
0.101736
0.00124554
-0.0104404
0.102604
-2.20043e-06
-0.0104526
0.103039
-0.00125008
-0.0104528
0.103039
-0.00248973
-0.0104406
0.102604
-0.00371273
-0.0104152
0.101736
-0.00491365
-0.0103744
0.10044
-0.00608508
-0.0103183
0.0987223
-0.00722212
-0.010248
0.0965928
-0.00831647
-0.0101673
0.0940619
-0.00935751
-0.0100799
0.0911407
-0.0103275
-0.00998661
0.0878397
-0.011196
-0.00987918
0.0841637
-0.0119129
-0.00972849
0.0801015
-0.0123404
-0.00949071
0.075584
-0.0120313
-0.00902907
0.0703055
-0.00936387
-0.00742273
0.06302
-0.00528761
0.0515508
0.00882937
-0.00512052
0.0439038
0.0116626
-0.00735416
0.0547479
0.0121353
-0.00927429
0.062259
0.011783
-0.00979481
0.0677935
0.0110985
-0.0100618
0.0725088
0.0102452
-0.0102411
0.0767306
0.00929069
-0.0103904
0.0805431
0.00826779
-0.0105298
0.0839645
0.00719338
-0.0106625
0.0869919
0.00607384
-0.0107793
0.0896151
0.00491432
-0.0108749
0.0918224
0.00371998
-0.0109467
0.0936026
0.00249657
-0.0109948
0.0949462
0.0012524
-0.0110242
0.0958461
-2.03087e-06
-0.011038
0.0962972
-0.00125645
-0.0110382
0.0962972
-0.00250091
-0.0110242
0.0958461
-0.0037254
-0.0109951
0.0949462
-0.00492153
-0.010947
0.0936026
-0.00608279
-0.0108783
0.0918224
-0.00720431
-0.0107875
0.0896151
-0.00828126
-0.0106776
0.0869919
-0.00930327
-0.0105551
0.0839645
-0.0102536
-0.0104208
0.0805431
-0.0111005
-0.0102655
0.0767306
-0.0117751
-0.0100583
0.0725087
-0.0121323
-0.00972473
0.0677933
-0.0116791
-0.0091265
0.0622587
-0.00887225
-0.00721016
0.0547483
-0.00537609
0.0439049
0.00813226
-0.00496649
0.0359324
0.0111276
-0.00682118
0.0459537
0.0117838
-0.00907261
0.0536466
0.0115399
-0.00976601
0.0594729
0.0109041
-0.0101239
0.0644133
0.010086
-0.0103763
0.0688054
0.00916952
-0.0105914
0.0727624
0.00819019
-0.0107913
0.0763132
0.00715194
-0.0109655
0.0794563
0.00606255
-0.0111148
0.0821807
0.0049212
-0.0112273
0.0844735
0.00373336
-0.0113075
0.0863228
0.00251002
-0.0113611
0.0877186
0.00126044
-0.0113916
0.0886533
-1.81713e-06
-0.0114063
0.0891219
-0.00126431
-0.0114062
0.0891219
-0.00251325
-0.0113922
0.0886533
-0.00373748
-0.0113605
0.0877186
-0.00492463
-0.0113086
0.0863228
-0.00606669
-0.01123
0.0844735
-0.00715825
-0.0111208
0.0821807
-0.00819494
-0.0109821
0.0794562
-0.0091778
-0.010813
0.0763131
-0.0100916
-0.0106244
0.0727624
-0.0109055
-0.0104048
0.0688054
-0.0115337
-0.0101278
0.064413
-0.0117733
-0.00969952
0.0594722
-0.0110986
-0.00894217
0.0536455
-0.0081321
-0.00664844
0.0459538
-0.00522374
0.0359342
0.00716405
-0.00452531
0.0277671
0.0103393
-0.00591842
0.0367522
0.0112549
-0.00848672
0.0445363
0.011108
-0.00932029
0.0506673
0.0105205
-0.00978395
0.0558351
0.00976124
-0.0101419
0.0604011
0.00892753
-0.0104627
0.064513
0.00802568
-0.0107356
0.0682068
0.00705966
-0.0109645
0.0714795
0.00601667
-0.0111379
0.0743177
0.00490499
-0.011266
0.0767068
0.00373306
-0.0113529
0.0786336
0.00251329
-0.0114086
0.0800877
0.00126274
-0.0114414
0.0810612
-2.49633e-06
-0.0114579
0.0815493
-0.00126868
-0.0114569
0.0815493
-0.00251768
-0.0114435
0.0810612
-0.00373518
-0.0114103
0.0800877
-0.00490456
-0.0113566
0.0786336
-0.00601279
-0.0112721
0.0767068
-0.0070475
-0.0111523
0.0743177
-0.00801043
-0.0109843
0.0714795
-0.00890321
-0.0107665
0.0682069
-0.00974101
-0.0104918
0.0645131
-0.0104947
-0.0101761
0.0604011
-0.0110907
-0.00977901
0.0558347
-0.0112237
-0.009266
0.0506656
-0.010305
-0.00835611
0.0445331
-0.00710766
-0.00576597
0.0367503
-0.00472676
0.0277677
0.00684757
-0.00488567
0.0197794
0.00952583
-0.00387724
0.0272073
0.0103107
-0.00698404
0.0350396
0.0101396
-0.00798755
0.041276
0.00965114
-0.00864412
0.0465782
0.00906246
-0.00918679
0.0513098
0.00840397
-0.00965089
0.0555993
0.00766523
-0.0100248
0.059464
0.00681643
-0.0103029
0.0628928
0.00585569
-0.0105023
0.0658683
0.00480082
-0.0106516
0.068373
0.00366439
-0.0107484
0.0703923
0.00247192
-0.0108157
0.0719154
0.00124336
-0.0108569
0.0729349
-6.2935e-06
-0.0108745
0.0734459
-0.00125069
-0.0108788
0.0734459
-0.00247886
-0.0108595
0.0729349
-0.0036663
-0.0108224
0.0719154
-0.0047956
-0.0107592
0.0703923
-0.00583939
-0.0106689
0.0683731
-0.00678044
-0.0105365
0.0658684
-0.0076079
-0.0103443
0.0628932
-0.00833468
-0.0100681
0.0594645
-0.00897238
-0.00970155
0.0556001
-0.00957128
-0.00921178
0.0513109
-0.010068
-0.00863135
0.0465786
-0.0102919
-0.00787822
0.0412738
-0.00947241
-0.0068827
0.0350342
-0.00682384
-0.00369078
0.027203
-0.00506303
0.019779
0.00266174
-0.000172521
0.00964682
0.00493564
-0.00105527
0.0177938
0.00618592
-0.00459684
0.0248506
0.0066018
-0.00526582
0.0306481
0.00678317
-0.00595758
0.0358851
0.00677699
-0.0065435
0.040725
0.00659154
-0.0070476
0.0451695
0.00622769
-0.007456
0.0492001
0.00567696
-0.00775334
0.0527949
0.0049643
-0.00797849
0.0559233
0.00411168
-0.00814742
0.0585592
0.00316514
-0.0082785
0.0606854
0.00214551
-0.00836837
0.0622894
0.00108146
-0.00842855
0.063363
-7.56003e-07
-0.00845954
0.0639012
-0.00108593
-0.00846084
0.0639012
-0.00214699
-0.00843411
0.063363
-0.00316281
-0.00837893
0.0622894
-0.00410346
-0.00829531
0.0606855
-0.00493731
-0.00818363
0.0585594
-0.00563407
-0.00802892
0.0559237
-0.0061609
-0.00781943
0.0527957
-0.00650101
-0.00752446
0.0492015
-0.00667347
-0.00711346
0.0451717
-0.00667142
-0.00657985
0.0407281
-0.00652189
-0.00591627
0.0358884
-0.00604353
-0.00521886
0.030648
-0.00482324
-0.00446229
0.0248473
-0.002443
-0.000968083
0.0177867
-0.000129506
0.00964517
0.000116058
0.00747081
0.00319225
0.0097066
0.00331403
0.0149187
0.0036654
0.0195078
0.0038981
0.0240799
0.00398755
0.0284114
0.00393414
0.0324265
0.00374276
0.0361102
0.003432
0.0394419
0.00301692
0.0423668
0.00251928
0.044845
0.00195105
0.0468537
0.00133345
0.0483753
0.000680517
0.0493967
8.39236e-06
0.0499095
-0.000665013
0.0499095
-0.00132348
0.0493967
-0.00195164
0.0483753
-0.00253669
0.0468537
-0.00307048
0.044845
-0.00353608
0.0423669
-0.00391336
0.0394424
-0.00417413
0.0361111
-0.00429505
0.0324282
-0.00424448
0.0284139
-0.00397393
0.0240834
-0.00357775
0.0195099
-0.00332302
0.0149203
-0.000159309
0.00970626
0.00747058
0.000967259
0.000273922
0.00623003
0.00362019
-0.00138747
0.00844158
0.00441276
0.000883541
0.0132441
0.0048599
0.00172065
0.0173418
0.00467693
0.00285578
0.0214093
0.00411811
0.00371819
0.0252535
0.00342849
0.00428608
0.0288307
0.00274186
0.00466886
0.0321281
0.00213669
0.00492145
0.0351253
0.00164412
0.00509149
0.0377672
0.00124265
0.0052343
0.0400113
0.000901124
0.00536067
0.0418336
0.00059143
0.00546805
0.043216
0.000289755
0.00555239
0.0441451
-1.19016e-05
0.00559842
0.0446118
-0.000313523
0.00559843
0.0446118
-0.000619716
0.00555703
0.0441449
-0.000942938
0.00548174
0.0432157
-0.00130506
0.00538159
0.0418331
-0.00173788
0.00526618
0.0400103
-0.00228439
0.00514588
0.0377659
-0.00296797
0.00500004
0.0351238
-0.00377108
0.00478525
0.0321264
-0.00456628
0.0043914
0.0288285
-0.00520477
0.00379759
0.0252511
-0.00546627
0.00293279
0.0214087
-0.00496639
0.00166502
0.0173434
-0.00405744
0.000764924
0.0132465
-0.00103703
-0.00175533
0.00844324
0.000203763
0.0062308
-0.00200858
0.00363945
0.00828925
-0.000573954
-0.000754359
0.015725
0.000808409