/*--------------------------------*- C++ -*----------------------------------*\
| =========                 |                                                 |
| \\      /  F ield         | OpenFOAM: The Open Source CFD Toolbox           |
|  \\    /   O peration     | Version:  2312                                  |
|   \\  /    A nd           | Website:  www.openfoam.com                      |
|    \\/     M anipulation  |                                                 |
\*---------------------------------------------------------------------------*/
FoamFile
{
    version     2.0;
    format      ascii;
    arch        "LSB;label=32;scalar=64";
    class       volScalarField;
    location    "50";
    object      T;
}
// * * * * * * * * * * * * * * * * * * * * * * * * * * * * * * * * * * * * * //

dimensions      [0 0 0 1 0 0 0];

internalField   nonuniform List<scalar> 
27000
(
439.203
361.181
350.765
345.533
344.438
344.421
344.624
344.874
345.123
345.342
345.527
345.672
345.779
345.848
345.883
345.883
345.848
345.779
345.672
345.528
345.343
345.124
344.875
344.626
344.421
344.436
345.526
350.753
361.17
439.188
337.571
359.646
352.634
350.16
349.303
349.22
349.348
349.504
349.645
349.761
349.852
349.921
349.97
350.002
350.017
350.017
350.002
349.971
349.922
349.853
349.761
349.645
349.506
349.349
349.22
349.302
350.156
352.632
359.645
337.568
344.174
348.41
351.619
351.236
350.783
350.567
350.509
350.516
350.541
350.568
350.592
350.611
350.625
350.634
350.638
350.638
350.634
350.625
350.611
350.592
350.569
350.542
350.516
350.51
350.567
350.782
351.235
351.619
348.411
344.173
344.105
348.477
350.521
350.957
350.913
350.81
350.744
350.717
350.711
350.715
350.721
350.726
350.731
350.734
350.736
350.736
350.734
350.731
350.726
350.721
350.715
350.711
350.717
350.744
350.81
350.913
350.957
350.521
348.477
344.104
344.605
348.94
350.408
350.762
350.838
350.822
350.788
350.764
350.752
350.747
350.746
350.747
350.748
350.749
350.75
350.75
350.749
350.748
350.747
350.746
350.747
350.752
350.764
350.789
350.822
350.839
350.762
350.408
348.94
344.606
345.08
349.328
350.46
350.708
350.781
350.793
350.782
350.768
350.757
350.751
350.748
350.747
350.746
350.746
350.746
350.746
350.746
350.746
350.747
350.748
350.751
350.757
350.768
350.783
350.793
350.781
350.708
350.46
349.329
345.081
345.507
349.603
350.521
350.704
350.757
350.77
350.768
350.76
350.752
350.746
350.743
350.741
350.74
350.739
350.739
350.739
350.739
350.739
350.741
350.743
350.746
350.752
350.76
350.768
350.77
350.757
350.704
350.521
349.603
345.508
345.878
349.802
350.57
350.713
350.749
350.758
350.756
350.75
350.745
350.74
350.736
350.734
350.733
350.732
350.732
350.732
350.732
350.733
350.734
350.736
350.74
350.745
350.75
350.756
350.758
350.749
350.713
350.57
349.803
345.878
346.193
349.951
350.608
350.723
350.748
350.751
350.748
350.743
350.738
350.734
350.731
350.729
350.727
350.726
350.726
350.726
350.726
350.727
350.729
350.731
350.734
350.738
350.743
350.748
350.751
350.748
350.723
350.608
349.952
346.193
346.451
350.063
350.638
350.732
350.749
350.748
350.743
350.738
350.733
350.729
350.726
350.724
350.723
350.723
350.722
350.722
350.723
350.723
350.724
350.726
350.729
350.733
350.738
350.743
350.748
350.749
350.732
350.638
350.063
346.451
346.654
350.146
350.66
350.739
350.75
350.747
350.741
350.735
350.73
350.726
350.723
350.722
350.721
350.72
350.72
350.72
350.72
350.721
350.722
350.723
350.726
350.73
350.734
350.74
350.747
350.75
350.739
350.66
350.146
346.654
346.807
350.206
350.676
350.744
350.751
350.746
350.739
350.732
350.727
350.724
350.721
350.72
350.719
350.718
350.718
350.718
350.718
350.719
350.72
350.721
350.724
350.727
350.732
350.739
350.746
350.751
350.744
350.676
350.206
346.808
346.918
350.248
350.687
350.748
350.752
350.745
350.737
350.731
350.726
350.722
350.72
350.719
350.718
350.717
350.717
350.717
350.717
350.718
350.719
350.72
350.722
350.726
350.731
350.737
350.745
350.752
350.748
350.687
350.248
346.918
346.989
350.274
350.694
350.75
350.753
350.745
350.737
350.73
350.725
350.722
350.719
350.718
350.717
350.717
350.717
350.717
350.717
350.717
350.718
350.719
350.722
350.725
350.73
350.737
350.745
350.752
350.75
350.694
350.274
346.989
347.024
350.287
350.697
350.751
350.753
350.745
350.736
350.729
350.725
350.721
350.719
350.718
350.717
350.717
350.717
350.717
350.717
350.717
350.718
350.719
350.721
350.725
350.729
350.736
350.745
350.753
350.751
350.697
350.287
347.024
347.024
350.287
350.697
350.751
350.753
350.745
350.736
350.729
350.725
350.721
350.719
350.718
350.717
350.717
350.717
350.717
350.717
350.717
350.718
350.719
350.721
350.725
350.729
350.736
350.745
350.753
350.751
350.697
350.287
347.024
346.989
350.274
350.694
350.75
350.752
350.745
350.737
350.73
350.725
350.722
350.719
350.718
350.717
350.717
350.717
350.717
350.717
350.717
350.718
350.719
350.722
350.725
350.73
350.737
350.745
350.752
350.75
350.694
350.274
346.989
346.917
350.247
350.687
350.748
350.752
350.745
350.737
350.731
350.726
350.722
350.72
350.719
350.718
350.718
350.717
350.717
350.717
350.718
350.719
350.72
350.722
350.726
350.731
350.737
350.745
350.752
350.748
350.687
350.247
346.917
346.807
350.205
350.675
350.744
350.751
350.746
350.739
350.732
350.727
350.724
350.721
350.72
350.719
350.718
350.718
350.718
350.718
350.719
350.72
350.721
350.724
350.727
350.732
350.739
350.746
350.751
350.744
350.675
350.205
346.807
346.653
350.145
350.659
350.738
350.75
350.746
350.74
350.734
350.73
350.726
350.723
350.722
350.721
350.72
350.72
350.72
350.72
350.721
350.722
350.723
350.726
350.729
350.734
350.74
350.747
350.75
350.739
350.659
350.145
346.653
346.45
350.062
350.637
350.731
350.748
350.748
350.743
350.738
350.733
350.729
350.726
350.724
350.723
350.723
350.722
350.722
350.723
350.723
350.724
350.726
350.729
350.733
350.738
350.743
350.748
350.748
350.731
350.637
350.062
346.449
346.192
349.95
350.607
350.722
350.747
350.751
350.748
350.743
350.738
350.734
350.731
350.729
350.727
350.727
350.726
350.726
350.727
350.727
350.729
350.731
350.734
350.738
350.743
350.748
350.751
350.747
350.722
350.607
349.95
346.191
345.876
349.8
350.569
350.712
350.748
350.757
350.756
350.75
350.745
350.74
350.736
350.734
350.733
350.732
350.732
350.732
350.732
350.733
350.734
350.736
350.74
350.745
350.75
350.756
350.757
350.748
350.712
350.568
349.8
345.875
345.505
349.6
350.519
350.703
350.756
350.77
350.768
350.76
350.752
350.747
350.743
350.741
350.74
350.739
350.739
350.739
350.739
350.74
350.741
350.743
350.747
350.752
350.76
350.768
350.77
350.756
350.703
350.519
349.6
345.504
345.078
349.325
350.458
350.707
350.781
350.793
350.782
350.768
350.758
350.752
350.749
350.747
350.747
350.747
350.747
350.747
350.747
350.747
350.747
350.748
350.752
350.758
350.768
350.782
350.793
350.781
350.707
350.458
349.325
345.077
344.604
348.939
350.408
350.762
350.838
350.822
350.789
350.765
350.752
350.748
350.747
350.748
350.749
350.75
350.751
350.751
350.75
350.749
350.748
350.747
350.748
350.752
350.765
350.788
350.822
350.838
350.762
350.408
348.938
344.603
344.106
348.48
350.524
350.958
350.913
350.809
350.744
350.718
350.713
350.716
350.722
350.728
350.732
350.736
350.737
350.737
350.736
350.732
350.728
350.722
350.716
350.712
350.718
350.744
350.809
350.913
350.958
350.524
348.481
344.106
344.185
348.429
351.624
351.234
350.78
350.566
350.511
350.518
350.544
350.571
350.595
350.613
350.627
350.636
350.64
350.64
350.636
350.627
350.613
350.595
350.571
350.544
350.518
350.51
350.566
350.78
351.234
351.624
348.423
344.182
337.643
359.66
352.619
350.146
349.298
349.22
349.351
349.509
349.65
349.765
349.856
349.925
349.974
350.005
350.02
350.02
350.005
349.974
349.925
349.856
349.765
349.648
349.507
349.35
349.218
349.298
350.151
352.626
359.664
337.611
439.19
361.118
350.72
345.511
344.433
344.422
344.628
344.877
345.128
345.348
345.531
345.675
345.782
345.851
345.885
345.885
345.851
345.781
345.675
345.53
345.347
345.126
344.875
344.626
344.421
344.437
345.526
350.749
361.16
439.206
431.455
360.851
346.842
339.143
336.568
335.898
335.865
336.06
336.346
336.628
336.867
337.059
337.205
337.301
337.35
337.35
337.301
337.204
337.058
336.865
336.625
336.342
336.055
335.86
335.896
336.578
339.175
346.897
360.918
431.49
335.301
356.627
350.58
346.766
344.703
344.082
344.132
344.425
344.775
345.099
345.368
345.578
345.73
345.828
345.877
345.876
345.828
345.729
345.577
345.367
345.097
344.772
344.421
344.127
344.078
344.705
346.774
350.591
356.637
335.273
337.268
343.858
349.216
349.518
348.888
348.467
348.354
348.412
348.535
348.666
348.782
348.874
348.941
348.984
349.006
349.006
348.984
348.94
348.873
348.781
348.665
348.534
348.411
348.352
348.465
348.889
349.521
349.22
343.853
337.27
335.907
342.566
347.574
349.482
349.86
349.822
349.761
349.751
349.78
349.824
349.87
349.909
349.939
349.959
349.969
349.969
349.959
349.939
349.909
349.87
349.824
349.78
349.751
349.761
349.822
349.86
349.484
347.577
342.569
335.91
336.173
343.058
347.541
349.377
350.006
350.178
350.212
350.219
350.231
350.249
350.269
350.288
350.303
350.314
350.319
350.319
350.314
350.303
350.288
350.269
350.249
350.231
350.219
350.212
350.179
350.007
349.378
347.542
343.058
336.171
336.637
343.9
347.938
349.471
350.057
350.284
350.37
350.403
350.42
350.433
350.445
350.455
350.464
350.47
350.473
350.473
350.47
350.464
350.455
350.445
350.433
350.42
350.403
350.37
350.285
350.057
349.471
347.938
343.897
336.633
337.164
344.669
348.339
349.622
350.12
350.338
350.438
350.485
350.508
350.521
350.53
350.537
350.543
350.546
350.548
350.548
350.546
350.543
350.538
350.531
350.521
350.508
350.485
350.438
350.339
350.12
349.622
348.338
344.666
337.161
337.684
345.297
348.655
349.762
350.187
350.381
350.477
350.526
350.552
350.566
350.574
350.58
350.583
350.586
350.587
350.587
350.586
350.583
350.58
350.574
350.566
350.552
350.527
350.478
350.381
350.187
349.762
348.655
345.295
337.681
338.145
345.793
348.893
349.875
350.247
350.418
350.505
350.551
350.576
350.589
350.597
350.601
350.604
350.605
350.606
350.606
350.605
350.604
350.601
350.597
350.589
350.576
350.551
350.505
350.418
350.247
349.875
348.893
345.791
338.143
338.538
346.179
349.071
349.962
350.295
350.447
350.525
350.567
350.59
350.602
350.609
350.612
350.614
350.615
350.615
350.615
350.615
350.614
350.612
350.609
350.602
350.59
350.567
350.525
350.447
350.295
349.962
349.071
346.179
338.537
338.862
346.476
349.203
350.026
350.332
350.47
350.541
350.578
350.598
350.609
350.614
350.617
350.619
350.619
350.62
350.62
350.619
350.619
350.617
350.615
350.609
350.598
350.578
350.541
350.47
350.332
350.026
349.203
346.475
338.862
339.117
346.697
349.3
350.074
350.359
350.487
350.552
350.586
350.604
350.613
350.617
350.62
350.621
350.621
350.621
350.621
350.621
350.621
350.62
350.617
350.613
350.604
350.586
350.552
350.488
350.359
350.074
349.3
346.697
339.117
339.305
346.854
349.368
350.108
350.379
350.5
350.56
350.591
350.607
350.615
350.619
350.621
350.621
350.622
350.622
350.622
350.622
350.621
350.621
350.619
350.615
350.607
350.591
350.56
350.5
350.379
350.108
349.368
346.854
339.305
339.429
346.955
349.411
350.129
350.391
350.507
350.565
350.594
350.609
350.616
350.62
350.621
350.622
350.622
350.622
350.622
350.622
350.622
350.621
350.62
350.616
350.609
350.594
350.565
350.507
350.391
350.129
349.411
346.955
339.429
339.49
347.004
349.432
350.139
350.397
350.511
350.567
350.595
350.61
350.617
350.62
350.621
350.622
350.622
350.622
350.622
350.622
350.622
350.621
350.62
350.617
350.61
350.595
350.567
350.511
350.397
350.139
349.432
347.004
339.49
339.49
347.004
349.432
350.139
350.397
350.511
350.567
350.595
350.61
350.617
350.62
350.621
350.622
350.622
350.622
350.622
350.622
350.622
350.621
350.62
350.617
350.61
350.595
350.567
350.511
350.397
350.139
349.432
347.004
339.49
339.429
346.955
349.411
350.129
350.391
350.507
350.565
350.594
350.609
350.616
350.62
350.621
350.622
350.622
350.622
350.622
350.622
350.622
350.621
350.62
350.616
350.609
350.594
350.565
350.507
350.391
350.129
349.411
346.955
339.429
339.306
346.855
349.368
350.108
350.379
350.5
350.56
350.591
350.607
350.615
350.619
350.621
350.621
350.622
350.622
350.622
350.622
350.621
350.621
350.619
350.615
350.607
350.591
350.56
350.5
350.379
350.108
349.368
346.855
339.306
339.118
346.698
349.3
350.074
350.359
350.487
350.552
350.586
350.604
350.613
350.617
350.62
350.621
350.621
350.621
350.621
350.621
350.621
350.62
350.618
350.613
350.604
350.586
350.552
350.488
350.359
350.074
349.3
346.698
339.118
338.863
346.476
349.203
350.026
350.332
350.47
350.541
350.578
350.598
350.609
350.615
350.617
350.619
350.619
350.62
350.62
350.619
350.619
350.617
350.615
350.609
350.598
350.578
350.541
350.47
350.332
350.027
349.203
346.477
338.863
338.539
346.18
349.071
349.962
350.295
350.447
350.525
350.567
350.59
350.602
350.609
350.612
350.614
350.615
350.616
350.616
350.615
350.614
350.612
350.609
350.602
350.59
350.567
350.525
350.447
350.295
349.962
349.072
346.181
338.54
338.146
345.794
348.894
349.875
350.247
350.418
350.505
350.551
350.576
350.59
350.597
350.601
350.604
350.606
350.606
350.606
350.606
350.604
350.601
350.597
350.59
350.576
350.551
350.505
350.418
350.247
349.875
348.894
345.795
338.147
337.686
345.299
348.657
349.763
350.187
350.381
350.478
350.527
350.552
350.566
350.574
350.58
350.584
350.586
350.587
350.587
350.586
350.584
350.58
350.575
350.566
350.552
350.527
350.478
350.381
350.187
349.763
348.657
345.3
337.687
337.167
344.673
348.342
349.624
350.121
350.339
350.439
350.485
350.508
350.521
350.531
350.538
350.543
350.547
350.549
350.549
350.547
350.543
350.538
350.531
350.522
350.508
350.485
350.439
350.339
350.12
349.624
348.342
344.674
337.169
336.641
343.906
347.942
349.473
350.058
350.285
350.371
350.403
350.42
350.433
350.445
350.456
350.464
350.47
350.473
350.473
350.47
350.464
350.456
350.445
350.433
350.42
350.403
350.37
350.285
350.057
349.473
347.942
343.908
336.644
336.179
343.065
347.545
349.378
350.006
350.179
350.212
350.219
350.231
350.249
350.269
350.288
350.303
350.314
350.319
350.319
350.314
350.303
350.288
350.269
350.249
350.231
350.219
350.212
350.179
350.006
349.377
347.544
343.066
336.183
335.916
342.566
347.57
349.481
349.861
349.823
349.761
349.75
349.779
349.824
349.87
349.909
349.939
349.959
349.969
349.969
349.959
349.939
349.909
349.87
349.824
349.779
349.751
349.761
349.823
349.86
349.48
347.57
342.566
335.913
337.259
343.816
349.204
349.523
348.892
348.466
348.35
348.408
348.531
348.663
348.78
348.872
348.94
348.983
349.005
349.005
348.984
348.94
348.872
348.78
348.664
348.532
348.41
348.353
348.469
348.893
349.52
349.205
343.835
337.262
335.134
356.598
350.611
346.792
344.709
344.076
344.122
344.415
344.767
345.093
345.363
345.574
345.726
345.825
345.874
345.874
345.825
345.726
345.574
345.364
345.094
344.77
344.42
344.128
344.083
344.712
346.778
350.593
356.603
335.202
431.459
360.984
346.929
339.179
336.569
335.888
335.854
336.051
336.337
336.62
336.861
337.054
337.2
337.298
337.346
337.346
337.298
337.201
337.055
336.862
336.622
336.34
336.055
335.859
335.891
336.561
339.137
346.85
360.881
431.419
373.922
336.807
329.096
324.567
322.872
322.349
322.291
322.419
322.614
322.817
323
323.151
323.265
323.342
323.381
323.381
323.342
323.265
323.151
323
322.817
322.615
322.42
322.292
322.349
322.873
324.565
329.083
336.781
373.921
323.114
333.805
332.481
330.832
329.727
329.373
329.475
329.78
330.145
330.498
330.803
331.045
331.224
331.342
331.4
331.4
331.341
331.224
331.045
330.802
330.498
330.146
329.781
329.476
329.374
329.73
330.835
332.478
333.804
323.14
323.664
328.625
332.798
334.072
334.261
334.27
334.37
334.555
334.774
334.985
335.166
335.31
335.416
335.484
335.518
335.518
335.484
335.416
335.31
335.166
334.985
334.774
334.556
334.37
334.271
334.262
334.072
332.797
328.628
323.665
322.36
327.897
332.511
335.09
336.13
336.466
336.6
336.7
336.798
336.892
336.975
337.042
337.092
337.125
337.141
337.141
337.125
337.092
337.042
336.975
336.892
336.798
336.7
336.6
336.466
336.13
335.089
332.51
327.896
322.36
322.458
328.327
333.007
335.656
336.809
337.252
337.43
337.52
337.583
337.635
337.679
337.714
337.741
337.759
337.768
337.768
337.759
337.741
337.715
337.679
337.635
337.583
337.52
337.43
337.252
336.809
335.655
333.007
328.328
322.46
322.807
329.153
333.76
336.122
337.138
337.571
337.766
337.865
337.924
337.964
337.994
338.018
338.035
338.046
338.052
338.052
338.046
338.035
338.018
337.994
337.964
337.924
337.865
337.766
337.571
337.138
336.122
333.76
329.153
322.807
323.217
329.979
334.433
336.491
337.353
337.741
337.933
338.034
338.093
338.13
338.155
338.173
338.186
338.194
338.198
338.198
338.194
338.186
338.173
338.156
338.13
338.093
338.034
337.933
337.741
337.353
336.491
334.433
329.979
323.218
323.623
330.699
334.956
336.769
337.511
337.854
338.031
338.13
338.187
338.222
338.244
338.259
338.269
338.275
338.278
338.278
338.275
338.269
338.259
338.245
338.222
338.187
338.13
338.031
337.854
337.511
336.769
334.956
330.699
323.624
323.999
331.294
335.348
336.976
337.631
337.936
338.098
338.189
338.243
338.275
338.296
338.308
338.316
338.321
338.323
338.323
338.321
338.316
338.309
338.296
338.276
338.243
338.189
338.098
337.936
337.631
336.976
335.348
331.294
323.999
324.33
331.77
335.643
337.131
337.722
337.998
338.145
338.228
338.278
338.308
338.326
338.337
338.343
338.347
338.349
338.349
338.347
338.343
338.337
338.326
338.308
338.278
338.229
338.145
337.998
337.722
337.131
335.643
331.77
324.33
324.608
332.142
335.863
337.246
337.79
338.044
338.179
338.255
338.301
338.328
338.344
338.353
338.359
338.362
338.363
338.363
338.362
338.359
338.353
338.344
338.328
338.301
338.256
338.179
338.044
337.79
337.246
335.863
332.142
324.608
324.83
332.423
336.023
337.33
337.839
338.077
338.203
338.274
338.315
338.34
338.354
338.362
338.367
338.369
338.37
338.37
338.369
338.367
338.362
338.354
338.34
338.316
338.274
338.203
338.077
337.839
337.33
336.023
332.423
324.831
324.997
332.625
336.135
337.388
337.874
338.1
338.219
338.286
338.325
338.347
338.36
338.367
338.371
338.373
338.374
338.374
338.373
338.371
338.367
338.36
338.347
338.325
338.286
338.219
338.1
337.874
337.388
336.135
332.625
324.997
325.108
332.756
336.206
337.424
337.896
338.115
338.23
338.294
338.331
338.352
338.364
338.37
338.374
338.375
338.376
338.376
338.375
338.374
338.37
338.364
338.352
338.331
338.294
338.23
338.115
337.896
337.424
336.205
332.756
325.108
325.163
332.82
336.24
337.442
337.907
338.122
338.235
338.297
338.333
338.354
338.365
338.371
338.374
338.376
338.377
338.377
338.376
338.374
338.371
338.365
338.354
338.333
338.298
338.235
338.122
337.907
337.442
336.24
332.82
325.164
325.164
332.821
336.241
337.442
337.907
338.122
338.235
338.297
338.333
338.354
338.365
338.371
338.374
338.376
338.377
338.377
338.376
338.374
338.371
338.365
338.354
338.333
338.298
338.235
338.122
337.907
337.442
336.24
332.821
325.164
325.11
332.758
336.207
337.425
337.896
338.115
338.23
338.294
338.331
338.352
338.363
338.37
338.373
338.375
338.376
338.376
338.375
338.373
338.37
338.364
338.352
338.331
338.294
338.23
338.115
337.896
337.425
336.207
332.758
325.11
325.001
332.629
336.137
337.389
337.875
338.101
338.22
338.286
338.325
338.347
338.36
338.367
338.371
338.373
338.374
338.374
338.373
338.371
338.367
338.36
338.347
338.325
338.287
338.22
338.101
337.875
337.389
336.137
332.629
325.001
324.836
332.429
336.027
337.332
337.841
338.078
338.203
338.274
338.316
338.34
338.354
338.362
338.367
338.369
338.37
338.37
338.369
338.367
338.362
338.354
338.34
338.316
338.274
338.203
338.078
337.841
337.332
336.027
332.429
324.836
324.615
332.15
335.868
337.249
337.791
338.045
338.179
338.256
338.301
338.328
338.344
338.353
338.358
338.361
338.363
338.363
338.361
338.358
338.353
338.344
338.328
338.301
338.256
338.179
338.045
337.791
337.249
335.868
332.15
324.615
324.339
331.781
335.651
337.136
337.724
337.999
338.146
338.229
338.278
338.308
338.326
338.337
338.343
338.347
338.348
338.348
338.347
338.343
338.337
338.326
338.308
338.278
338.229
338.146
337.999
337.724
337.135
335.651
331.781
324.339
324.011
331.309
335.359
336.982
337.634
337.938
338.099
338.189
338.243
338.275
338.295
338.308
338.316
338.321
338.323
338.323
338.321
338.316
338.308
338.295
338.275
338.243
338.19
338.099
337.938
337.634
336.982
335.359
331.309
324.011
323.638
330.718
334.97
336.778
337.515
337.856
338.033
338.13
338.187
338.221
338.244
338.259
338.268
338.274
338.277
338.277
338.274
338.268
338.259
338.244
338.222
338.187
338.13
338.032
337.856
337.515
336.778
334.97
330.718
323.638
323.234
330.003
334.453
336.503
337.358
337.744
337.934
338.034
338.092
338.129
338.154
338.172
338.184
338.192
338.196
338.196
338.192
338.184
338.172
338.154
338.129
338.092
338.034
337.934
337.744
337.358
336.502
334.453
330.004
323.235
322.826
329.181
333.785
336.136
337.144
337.573
337.767
337.864
337.922
337.961
337.992
338.015
338.032
338.044
338.049
338.049
338.044
338.032
338.015
337.992
337.961
337.922
337.864
337.767
337.573
337.144
336.135
333.785
329.182
322.828
322.479
328.352
333.029
335.668
336.815
337.253
337.428
337.516
337.578
337.63
337.674
337.71
337.737
337.755
337.764
337.764
337.755
337.737
337.71
337.674
337.63
337.578
337.517
337.428
337.254
336.815
335.667
333.028
328.351
322.48
322.372
327.901
332.515
335.096
336.135
336.465
336.594
336.69
336.787
336.881
336.965
337.033
337.083
337.117
337.134
337.134
337.117
337.084
337.033
336.965
336.882
336.788
336.691
336.595
336.466
336.135
335.095
332.512
327.899
322.372
323.653
328.591
332.788
334.084
334.271
334.265
334.353
334.533
334.75
334.963
335.146
335.292
335.399
335.469
335.504
335.504
335.469
335.399
335.292
335.146
334.963
334.751
334.533
334.354
334.267
334.271
334.083
332.787
328.593
323.655
322.96
333.77
332.518
330.874
329.74
329.358
329.445
329.744
330.109
330.464
330.772
331.017
331.198
331.318
331.377
331.377
331.318
331.199
331.017
330.772
330.465
330.11
329.746
329.447
329.36
329.741
330.871
332.511
333.771
322.994
373.931
336.923
329.181
324.606
322.869
322.323
322.259
322.386
322.583
322.788
322.972
323.125
323.241
323.319
323.358
323.358
323.319
323.241
323.125
322.973
322.788
322.584
322.387
322.26
322.324
322.867
324.598
329.162
336.893
373.925
331.173
316.11
313.048
311.186
310.48
310.26
310.253
310.339
310.462
310.589
310.703
310.797
310.869
310.918
310.942
310.942
310.918
310.869
310.797
310.703
310.588
310.461
310.338
310.252
310.259
310.48
311.188
313.053
316.118
331.178
310.448
314.836
315.258
314.977
314.742
314.722
314.874
315.115
315.383
315.64
315.863
316.044
316.178
316.266
316.31
316.31
316.266
316.178
316.043
315.863
315.64
315.382
315.114
314.872
314.72
314.74
314.978
315.26
314.839
310.446
310.826
313.654
316.178
317.461
318.032
318.32
318.543
318.761
318.974
319.168
319.333
319.463
319.559
319.621
319.652
319.652
319.621
319.559
319.463
319.333
319.168
318.973
318.76
318.542
318.319
318.031
317.462
316.18
313.656
310.828
310.176
313.596
316.652
318.722
319.831
320.326
320.567
320.722
320.844
320.947
321.032
321.099
321.149
321.181
321.197
321.197
321.181
321.149
321.099
321.032
320.947
320.844
320.721
320.566
320.325
319.831
318.723
316.655
313.599
310.178
310.264
314.012
317.308
319.528
320.675
321.182
321.416
321.542
321.626
321.689
321.738
321.776
321.803
321.821
321.83
321.83
321.821
321.803
321.776
321.738
321.689
321.626
321.542
321.415
321.182
320.675
319.529
317.309
314.014
310.264
310.492
314.613
318.02
320.103
321.109
321.564
321.784
321.903
321.975
322.025
322.06
322.086
322.105
322.117
322.123
322.123
322.117
322.105
322.086
322.06
322.025
321.975
321.903
321.784
321.564
321.109
320.104
318.021
314.614
310.492
310.759
315.213
318.634
320.515
321.373
321.771
321.974
322.087
322.155
322.198
322.228
322.249
322.263
322.272
322.277
322.277
322.272
322.263
322.249
322.228
322.198
322.154
322.086
321.973
321.771
321.373
320.516
318.634
315.214
310.759
311.024
315.747
319.115
320.811
321.553
321.903
322.087
322.193
322.257
322.298
322.324
322.342
322.354
322.361
322.364
322.364
322.361
322.354
322.342
322.324
322.298
322.257
322.193
322.087
321.903
321.553
320.811
319.115
315.747
311.024
311.269
316.198
319.481
321.025
321.682
321.995
322.163
322.261
322.32
322.358
322.382
322.397
322.407
322.413
322.416
322.416
322.413
322.407
322.397
322.382
322.358
322.32
322.261
322.163
321.995
321.682
321.025
319.482
316.198
311.269
311.485
316.566
319.757
321.181
321.778
322.062
322.216
322.306
322.361
322.396
322.417
322.431
322.44
322.445
322.447
322.447
322.445
322.44
322.431
322.418
322.396
322.361
322.306
322.216
322.062
321.778
321.181
319.757
316.567
311.485
311.666
316.859
319.962
321.296
321.848
322.111
322.254
322.338
322.388
322.42
322.44
322.452
322.459
322.463
322.465
322.465
322.463
322.459
322.452
322.44
322.42
322.389
322.338
322.254
322.111
321.848
321.296
319.962
316.859
311.667
311.813
317.082
320.111
321.379
321.899
322.147
322.281
322.359
322.407
322.436
322.454
322.464
322.471
322.474
322.476
322.476
322.475
322.471
322.465
322.454
322.436
322.407
322.359
322.281
322.147
321.899
321.379
320.112
317.082
311.813
311.922
317.244
320.216
321.436
321.934
322.171
322.299
322.374
322.418
322.446
322.462
322.472
322.478
322.481
322.482
322.482
322.481
322.478
322.472
322.462
322.446
322.419
322.374
322.3
322.171
321.934
321.436
320.216
317.244
311.922
311.995
317.349
320.283
321.473
321.957
322.187
322.311
322.383
322.426
322.451
322.467
322.476
322.481
322.484
322.485
322.485
322.484
322.481
322.476
322.467
322.452
322.426
322.383
322.311
322.187
321.957
321.473
320.283
317.349
311.995
312.032
317.401
320.316
321.491
321.968
322.195
322.317
322.387
322.429
322.454
322.469
322.478
322.483
322.486
322.487
322.487
322.486
322.483
322.478
322.469
322.454
322.429
322.387
322.317
322.195
321.968
321.491
320.316
317.401
312.032
312.033
317.402
320.317
321.491
321.968
322.195
322.317
322.387
322.429
322.454
322.469
322.478
322.483
322.486
322.487
322.487
322.486
322.483
322.478
322.469
322.454
322.429
322.387
322.317
322.195
321.968
321.491
320.317
317.402
312.033
311.998
317.352
320.285
321.474
321.958
322.187
322.311
322.383
322.426
322.451
322.467
322.476
322.481
322.484
322.485
322.485
322.484
322.481
322.476
322.467
322.451
322.426
322.383
322.311
322.187
321.958
321.474
320.285
317.352
311.998
311.927
317.249
320.22
321.439
321.936
322.172
322.3
322.374
322.419
322.446
322.462
322.472
322.477
322.481
322.482
322.482
322.481
322.477
322.472
322.462
322.446
322.419
322.374
322.3
322.172
321.936
321.439
320.22
317.25
311.927
311.82
317.091
320.118
321.382
321.901
322.148
322.282
322.36
322.407
322.436
322.453
322.464
322.471
322.474
322.476
322.476
322.474
322.471
322.464
322.453
322.436
322.407
322.36
322.282
322.148
321.901
321.382
320.117
317.091
311.82
311.676
316.871
319.97
321.301
321.851
322.113
322.255
322.338
322.389
322.42
322.439
322.451
322.459
322.463
322.465
322.465
322.463
322.459
322.451
322.439
322.42
322.389
322.338
322.255
322.113
321.851
321.3
319.97
316.871
311.676
311.497
316.582
319.769
321.188
321.782
322.064
322.217
322.307
322.361
322.395
322.417
322.43
322.439
322.444
322.446
322.446
322.444
322.439
322.43
322.417
322.395
322.361
322.307
322.217
322.064
321.782
321.188
319.769
316.582
311.497
311.284
316.218
319.498
321.035
321.688
321.998
322.164
322.261
322.32
322.357
322.381
322.396
322.406
322.412
322.415
322.415
322.412
322.406
322.396
322.381
322.357
322.32
322.261
322.165
321.998
321.688
321.034
319.498
316.218
311.284
311.042
315.773
319.138
320.824
321.56
321.906
322.089
322.193
322.256
322.296
322.322
322.34
322.352
322.359
322.362
322.362
322.359
322.352
322.34
322.323
322.296
322.256
322.193
322.089
321.907
321.56
320.824
319.137
315.773
311.042
310.781
315.245
318.664
320.533
321.382
321.775
321.975
322.086
322.153
322.196
322.225
322.246
322.26
322.269
322.274
322.274
322.269
322.26
322.246
322.226
322.196
322.153
322.086
321.975
321.775
321.382
320.533
318.663
315.245
310.78
310.517
314.649
318.055
320.125
321.119
321.568
321.784
321.9
321.971
322.02
322.055
322.081
322.1
322.112
322.118
322.118
322.112
322.1
322.081
322.055
322.02
321.972
321.901
321.784
321.568
321.119
320.125
318.055
314.649
310.516
310.29
314.046
317.342
319.55
320.685
321.184
321.412
321.536
321.618
321.68
321.729
321.767
321.795
321.814
321.823
321.823
321.814
321.795
321.767
321.729
321.68
321.618
321.536
321.412
321.184
320.685
319.551
317.342
314.046
310.289
310.195
313.616
316.672
318.737
319.837
320.322
320.556
320.706
320.826
320.929
321.015
321.084
321.134
321.167
321.184
321.184
321.167
321.134
321.084
321.015
320.929
320.827
320.706
320.556
320.323
319.837
318.738
316.673
313.617
310.196
310.828
313.647
316.183
317.472
318.034
318.306
318.517
318.728
318.94
319.135
319.302
319.435
319.533
319.597
319.629
319.629
319.597
319.533
319.435
319.302
319.135
318.94
318.729
318.517
318.307
318.034
317.472
316.184
313.648
310.83
310.349
314.817
315.282
314.997
314.738
314.697
314.835
315.07
315.338
315.596
315.823
316.006
316.143
316.233
316.278
316.278
316.233
316.143
316.006
315.823
315.596
315.338
315.07
314.836
314.698
314.738
314.997
315.282
314.821
310.352
331.18
316.191
313.103
311.204
310.465
310.229
310.215
310.299
310.424
310.552
310.669
310.765
310.839
310.888
310.913
310.913
310.888
310.839
310.765
310.668
310.552
310.423
310.299
310.216
310.23
310.465
311.204
313.102
316.191
331.182
310.005
304.792
303.798
303.185
302.968
302.911
302.929
302.98
303.045
303.111
303.169
303.218
303.255
303.28
303.293
303.293
303.28
303.255
303.218
303.169
303.111
303.045
302.98
302.929
302.912
302.968
303.184
303.796
304.792
310.003
302.774
304.383
304.937
305.048
305.11
305.198
305.327
305.478
305.634
305.78
305.907
306.01
306.087
306.138
306.164
306.164
306.138
306.087
306.01
305.908
305.781
305.634
305.478
305.327
305.198
305.109
305.046
304.935
304.381
302.77
303.046
304.384
305.659
306.485
306.964
307.244
307.44
307.603
307.748
307.876
307.983
308.067
308.129
308.169
308.189
308.189
308.169
308.129
308.067
307.983
307.876
307.748
307.603
307.439
307.243
306.963
306.484
305.658
304.384