/*--------------------------------*- C++ -*----------------------------------*\
| =========                 |                                                 |
| \\      /  F ield         | OpenFOAM: The Open Source CFD Toolbox           |
|  \\    /   O peration     | Version:  2312                                  |
|   \\  /    A nd           | Website:  www.openfoam.com                      |
|    \\/     M anipulation  |                                                 |
\*---------------------------------------------------------------------------*/
FoamFile
{
    version     2.0;
    format      ascii;
    arch        "LSB;label=32;scalar=64";
    class       volVectorField;
    location    "50";
    object      U;
}
// * * * * * * * * * * * * * * * * * * * * * * * * * * * * * * * * * * * * * //

dimensions      [0 1 -1 0 0 0 0];

internalField   nonuniform List<vector> 
27000
(
(-7.71707e-05 0.000138586 0.107613)
(-0.00014732 0.000182673 0.07645)
(-8.62668e-05 0.000228226 0.0817256)
(-3.2546e-05 0.000188017 0.0833254)
(-4.24916e-07 0.000185371 0.0851992)
(1.02916e-05 0.000190689 0.0866584)
(2.06467e-05 0.000194558 0.0877424)
(2.46834e-05 0.000199813 0.0886101)
(2.64683e-05 0.0002033 0.0893316)
(2.60797e-05 0.000206613 0.0899144)
(2.34169e-05 0.0002095 0.0903773)
(1.95819e-05 0.000211767 0.0907295)
(1.46795e-05 0.000213324 0.0909823)
(9.10053e-06 0.000214753 0.0911455)
(2.87011e-06 0.000215286 0.0912255)
(-3.35563e-06 0.000215151 0.0912256)
(-9.24219e-06 0.000214667 0.0911457)
(-1.50047e-05 0.000213323 0.0909827)
(-1.94075e-05 0.000211229 0.0907302)
(-2.26365e-05 0.000209407 0.0903785)
(-2.44758e-05 0.00020598 0.0899162)
(-2.35826e-05 0.000203353 0.0893342)
(-2.0614e-05 0.000199132 0.0886138)
(-1.34923e-05 0.000195959 0.0877463)
(-5.49314e-06 0.000189593 0.0866624)
(1.2188e-05 0.000187191 0.0852035)
(3.80252e-05 0.000191388 0.0833266)
(8.08942e-05 0.000213342 0.0817239)
(0.000163755 0.000200251 0.0764447)
(5.31407e-05 0.000113413 0.107602)
(0.000246374 -0.000102471 0.0626941)
(0.000105783 -4.99697e-05 0.083886)
(7.93364e-05 0.000144987 0.0918145)
(5.6235e-05 0.000204381 0.0944789)
(5.22437e-05 0.000232897 0.0957652)
(5.82985e-05 0.00025208 0.0966468)
(6.21225e-05 0.000266855 0.0972768)
(6.42578e-05 0.000278294 0.0977404)
(6.32111e-05 0.000287602 0.0980928)
(5.87496e-05 0.000294512 0.0983637)
(5.17022e-05 0.000300018 0.0985691)
(4.21451e-05 0.000304337 0.0987202)
(3.11005e-05 0.00030766 0.0988259)
(1.89444e-05 0.000309628 0.098893)
(6.43075e-06 0.000310691 0.0989255)
(-6.30424e-06 0.0003108 0.0989255)
(-1.9098e-05 0.000309546 0.0988931)
(-3.11104e-05 0.000307339 0.0988262)
(-4.25017e-05 0.000304072 0.0987206)
(-5.24742e-05 0.000299163 0.0985699)
(-5.99892e-05 0.000293802 0.098365)
(-6.54415e-05 0.000285968 0.0980947)
(-6.74685e-05 0.000276675 0.0977429)
(-6.61576e-05 0.000264764 0.0972793)
(-6.17392e-05 0.000251184 0.0966488)
(-5.77297e-05 0.000232889 0.0957653)
(-5.54003e-05 0.000206828 0.0944729)
(-7.53714e-05 0.000158342 0.0917999)
(-0.000117255 -5.74344e-05 0.0838641)
(-0.000237104 -9.13396e-05 0.0626849)
(6.85934e-05 0.000170688 0.0805029)
(0.000147561 0.000128119 0.0900756)
(0.000169666 0.000198064 0.0969957)
(0.00015529 0.000236108 0.098662)
(0.000136135 0.000262689 0.099161)
(0.000122477 0.000280483 0.0994056)
(0.000111927 0.00029433 0.0995778)
(0.000102031 0.000306217 0.0997088)
(9.18507e-05 0.000315199 0.0998098)
(8.0779e-05 0.0003227 0.099888)
(6.80759e-05 0.000328285 0.0999476)
(5.43019e-05 0.0003325 0.0999917)
(3.94864e-05 0.000335407 0.100023)
(2.39814e-05 0.000337376 0.100042)
(8.08915e-06 0.000338289 0.100052)
(-8.02738e-06 0.000338218 0.100052)
(-2.38645e-05 0.000337342 0.100042)
(-3.94837e-05 0.000335471 0.100023)
(-5.4584e-05 0.000332333 0.0999919)
(-6.85374e-05 0.000328318 0.0999479)
(-8.16176e-05 0.000322389 0.0998884)
(-9.32406e-05 0.000314957 0.0998105)
(-0.000103903 0.000305395 0.0997096)
(-0.000114506 0.000293396 0.0995786)
(-0.000124862 0.000279557 0.0994058)
(-0.000138163 0.00026158 0.0991594)
(-0.000154977 0.000238807 0.0986571)
(-0.000169348 0.000198559 0.0969862)
(-0.000142097 0.000136348 0.0900637)
(-8.61086e-05 0.000151899 0.0805012)
(0.000105383 0.000108836 0.0838905)
(0.000160198 0.000140509 0.0940287)
(0.000191211 0.000210089 0.0983857)
(0.000184176 0.000238004 0.0995143)
(0.000168904 0.000256979 0.0998461)
(0.0001527 0.000271147 0.0999713)
(0.000136742 0.000283258 0.100041)
(0.000121281 0.000293239 0.10009)
(0.000106422 0.000302141 0.100128)
(9.13641e-05 0.000309131 0.100158)
(7.58775e-05 0.000314786 0.100181)
(5.97713e-05 0.000318923 0.100198)
(4.31427e-05 0.000321862 0.10021)
(2.60823e-05 0.000323692 0.100218)
(8.68859e-06 0.000324578 0.100222)
(-8.6743e-06 0.00032458 0.100222)
(-2.60618e-05 0.000323758 0.100218)
(-4.3229e-05 0.000321851 0.100211)
(-5.98137e-05 0.000319076 0.100199)
(-7.60797e-05 0.000314849 0.100182)
(-9.16371e-05 0.00030926 0.100159)
(-0.000106723 0.000301988 0.100129)
(-0.000121895 0.000293057 0.10009)
(-0.000137073 0.000282512 0.100041)
(-0.000153342 0.000270512 0.0999709)
(-0.000168974 0.000256432 0.0998448)
(-0.000183754 0.000238333 0.0995115)
(-0.00018874 0.000213952 0.0983814)
(-0.000158581 0.000143965 0.0940238)
(-0.000109705 0.000101566 0.0838907)
(0.000120099 0.000118815 0.0864268)
(0.000181364 0.000150648 0.0959804)
(0.000210854 0.000206799 0.0990952)
(0.000202602 0.000229952 0.0998151)
(0.000187861 0.000245125 0.100041)
(0.000170661 0.000256935 0.100127)
(0.00015255 0.00026647 0.100165)
(0.00013472 0.000275064 0.100188)
(0.000116941 0.000282489 0.100204)
(9.93814e-05 0.000288877 0.100216)
(8.17842e-05 0.000293982 0.100225)
(6.39893e-05 0.000297874 0.100232)
(4.5963e-05 0.000300651 0.100237)
(2.76718e-05 0.000302382 0.10024)
(9.26554e-06 0.000303251 0.100241)
(-9.25378e-06 0.00030326 0.100241)
(-2.7698e-05 0.000302409 0.10024)
(-4.59237e-05 0.000300746 0.100237)
(-6.40181e-05 0.000297984 0.100232)
(-8.1734e-05 0.000294077 0.100225)
(-9.92823e-05 0.000288954 0.100216)
(-0.000116818 0.00028242 0.100204)
(-0.000134422 0.000274717 0.100188)
(-0.000152407 0.000266035 0.100165)
(-0.000170192 0.000256153 0.100126)
(-0.000187339 0.000245268 0.100041)
(-0.000201588 0.000230904 0.0998139)
(-0.000208867 0.000210647 0.0990939)
(-0.000178752 0.000154878 0.0959803)
(-0.000125164 0.000110555 0.0864304)
(0.000135422 0.000112043 0.0882599)
(0.000198411 0.000156455 0.0971295)
(0.00022669 0.000200476 0.0994777)
(0.000217134 0.000217771 0.0999769)
(0.000201315 0.000229842 0.100127)
(0.000183334 0.000238963 0.100182)
(0.000164255 0.000246898 0.100204)
(0.0001447 0.00025387 0.100214)
(0.000125327 0.0002601 0.10022)
(0.000106056 0.000265552 0.100223)
(8.68829e-05 0.00027001 0.100226)
(6.77269e-05 0.00027353 0.100228)
(4.84814e-05 0.000276025 0.100229)
(2.91649e-05 0.000277673 0.10023)
(9.72833e-06 0.000278438 0.10023)
(-9.71146e-06 0.000278456 0.10023)
(-2.90993e-05 0.000277689 0.10023)
(-4.84449e-05 0.000276098 0.100229)
(-6.76247e-05 0.000273557 0.100228)
(-8.67256e-05 0.000270102 0.100226)
(-0.000105823 0.000265469 0.100223)
(-0.000125011 0.000259944 0.10022)
(-0.000144367 0.000253486 0.100214)
(-0.000163855 0.000246312 0.100204)
(-0.00018305 0.000238576 0.100182)
(-0.000200955 0.000229715 0.100127)
(-0.000216287 0.000219333 0.0999766)
(-0.000224976 0.000203394 0.0994776)
(-0.000195539 0.000160603 0.0971306)
(-0.00013857 0.000105172 0.0882626)
(0.000147502 0.000103605 0.0896305)
(0.000213133 0.000153204 0.0978551)
(0.000239475 0.000189123 0.0997035)
(0.00022905 0.000202565 0.100073)
(0.000212505 0.000211486 0.100174)
(0.000193515 0.000218808 0.100207)
(0.000173405 0.000225071 0.100217)
(0.000152912 0.000230767 0.100219)
(0.00013231 0.000235967 0.100218)
(0.000111818 0.000240482 0.100217)
(9.14344e-05 0.000244348 0.100216)
(7.11266e-05 0.000247364 0.100216)
(5.0849e-05 0.000249614 0.100215)
(3.05281e-05 0.000251053 0.100215)
(1.02045e-05 0.000251773 0.100215)
(-1.0135e-05 0.000251772 0.100215)
(-3.0467e-05 0.000251075 0.100215)
(-5.07448e-05 0.000249607 0.100215)
(-7.09863e-05 0.000247403 0.100216)
(-9.12415e-05 0.000244277 0.100216)
(-0.000111581 0.000240388 0.100217)
(-0.00013201 0.000235682 0.100218)
(-0.000152653 0.000230369 0.100219)
(-0.000173239 0.000224587 0.100217)
(-0.000193424 0.00021841 0.100207)
(-0.000212396 0.000211713 0.100174)
(-0.000228631 0.000203568 0.100073)
(-0.000238235 0.000191742 0.0997038)
(-0.000210636 0.000155918 0.0978564)
(-0.000148998 9.92727e-05 0.0896327)
(0.000157474 9.43991e-05 0.090678)
(0.000225277 0.000144099 0.0983447)
(0.000250238 0.000173859 0.099849)
(0.000239174 0.00018423 0.100132)
(0.000221724 0.000191181 0.100202)
(0.000202011 0.000196752 0.100219)
(0.000181111 0.000201773 0.10022)
(0.00015974 0.000206398 0.100217)
(0.000138254 0.0002106 0.100212)
(0.000116811 0.000214391 0.100209)
(9.54717e-05 0.00021758 0.100206)
(7.42076e-05 0.000220171 0.100204)
(5.29978e-05 0.000222088 0.100202)
(3.18231e-05 0.000223354 0.100202)
(1.06312e-05 0.000223975 0.100201)
(-1.0547e-05 0.000223975 0.100201)
(-3.17203e-05 0.000223341 0.100202)
(-5.28808e-05 0.000222088 0.100202)
(-7.40626e-05 0.00022012 0.100204)
(-9.52992e-05 0.000217504 0.100206)
(-0.000116596 0.00021421 0.100209)
(-0.000138091 0.000210341 0.100212)
(-0.000159605 0.00020601 0.100217)
(-0.00018109 0.000201416 0.10022)
(-0.00020209 0.00019654 0.100219)
(-0.000221828 0.000191339 0.100202)
(-0.000239001 0.000185119 0.100132)
(-0.000249379 0.000175491 0.0998493)
(-0.000223627 0.000146007 0.0983457)
(-0.000157878 9.17288e-05 0.0906796)
(0.000165799 8.40396e-05 0.0914929)
(0.000235812 0.000130947 0.0986903)
(0.000259381 0.000155263 0.0999487)
(0.000247465 0.000163642 0.100171)
(0.000229511 0.000168965 0.100218)
(0.000209044 0.000173345 0.100225)
(0.000187508 0.000177281 0.10022)
(0.000165463 0.000180966 0.100213)
(0.000143281 0.000184386 0.100206)
(0.000121094 0.000187444 0.100201)
(9.89549e-05 0.000190087 0.100197)
(7.6918e-05 0.000192226 0.100194)
(5.49298e-05 0.000193835 0.100193)
(3.29584e-05 0.00019491 0.100192)
(1.10214e-05 0.000195425 0.100191)
(-1.09228e-05 0.00019543 0.100191)
(-3.28538e-05 0.000194884 0.100192)
(-5.48124e-05 0.000193801 0.100193)
(-7.67924e-05 0.000192157 0.100194)
(-9.88126e-05 0.000189979 0.100197)
(-0.000120975 0.000187273 0.100201)
(-0.000143174 0.000184136 0.100206)
(-0.000165454 0.000180699 0.100213)
(-0.000187584 0.000177013 0.10022)
(-0.000209214 0.000173261 0.100225)
(-0.000229647 0.000169137 0.100218)
(-0.000247475 0.00016423 0.100171)
(-0.000258905 0.000156333 0.099949)
(-0.000234739 0.000132019 0.0986909)
(-0.000165786 8.27798e-05 0.0914939)
(0.000172728 7.29567e-05 0.0921217)
(0.000245021 0.000114537 0.0989385)
(0.000267002 0.000134353 0.100019)
(0.000254502 0.000141087 0.100197)
(0.000235767 0.000145284 0.100229)
(0.000214816 0.000148668 0.100227)
(0.000192726 0.000151774 0.100218)
(0.000170189 0.000154673 0.100208)
(0.000147434 0.000157395 0.1002)
(0.000124656 0.00015984 0.100195)
(0.000101923 0.000161968 0.10019)
(7.92181e-05 0.000163703 0.100188)
(5.65735e-05 0.000165026 0.100186)
(3.39556e-05 0.000165891 0.100185)
(1.13449e-05 0.000166343 0.100184)
(-1.12479e-05 0.000166312 0.100184)
(-3.38599e-05 0.000165882 0.100185)
(-5.64689e-05 0.000164964 0.100186)
(-7.91139e-05 0.000163646 0.100188)
(-0.000101829 0.000161853 0.10019)
(-0.000124574 0.000159703 0.100195)
(-0.000147412 0.000157213 0.1002)
(-0.000170219 0.000154478 0.100208)
(-0.000192842 0.000151637 0.100218)
(-0.000214973 0.000148634 0.100227)
(-0.000235954 0.000145461 0.100229)
(-0.000254536 0.000141435 0.100197)
(-0.000266776 0.000134984 0.100019)
(-0.000244359 0.000115191 0.0989388)
(-0.00017255 7.25123e-05 0.0921223)
(0.000178565 6.09793e-05 0.0925985)
(0.000252763 9.5916e-05 0.0991171)
(0.000273401 0.000111784 0.100069)
(0.000260094 0.000117027 0.100215)
(0.000240851 0.000120342 0.100235)
(0.000219378 0.000122975 0.100228)
(0.000196912 0.000125368 0.100216)
(0.000173941 0.000127636 0.100205)
(0.000150793 0.000129733 0.100196)
(0.00012756 0.000131665 0.10019)
(0.000104322 0.000133323 0.100186)
(8.11276e-05 0.000134697 0.100183)
(5.79382e-05 0.000135743 0.100181)
(3.47755e-05 0.000136447 0.100181)
(1.16186e-05 0.000136785 0.10018)
(-1.1537e-05 0.000136786 0.10018)
(-3.46829e-05 0.000136408 0.100181)
(-5.78542e-05 0.000135709 0.100181)
(-8.10441e-05 0.000134621 0.100183)
(-0.000104256 0.000133247 0.100186)
(-0.000127519 0.000131548 0.10019)
(-0.000150786 0.000129614 0.100196)
(-0.000173996 0.000127521 0.100205)
(-0.000197019 0.000125295 0.100216)
(-0.000219514 0.000123005 0.100228)
(-0.000240978 0.000120448 0.100235)
(-0.000260167 0.000117286 0.100215)
(-0.000273306 0.000112049 0.100069)
(-0.000252384 9.6317e-05 0.0991173)
(-0.000178348 6.10357e-05 0.0925988)
(0.000183266 4.82245e-05 0.0929505)
(0.000259015 7.5862e-05 0.0992441)
(0.000278492 8.78737e-05 0.100104)
(0.000264518 9.19564e-05 0.100228)
(0.000244755 9.44275e-05 0.100239)
(0.000222906 9.64369e-05 0.100228)
(0.000200115 9.8236e-05 0.100214)
(0.000176868 9.99375e-05 0.100202)
(0.000153387 0.000101534 0.100193)
(0.000129825 0.000102974 0.100187)
(0.000106228 0.000104243 0.100183)
(8.26215e-05 0.000105289 0.10018)
(5.90273e-05 0.000106083 0.100179)
(3.54249e-05 0.000106628 0.100178)
(1.18336e-05 0.000106887 0.100178)
(-1.17601e-05 0.000106881 0.100178)
(-3.53579e-05 0.000106599 0.100178)
(-5.89569e-05 0.000106039 0.100179)
(-8.25604e-05 0.000105236 0.10018)
(-0.000106177 0.000104168 0.100183)
(-0.000129799 0.000102898 0.100187)
(-0.000153392 0.000101451 0.100193)
(-0.000176913 9.98709e-05 0.100202)
(-0.000200185 9.82226e-05 0.100214)
(-0.000223009 9.64686e-05 0.100228)
(-0.00024484 9.4541e-05 0.100239)
(-0.000264569 9.20646e-05 0.100228)
(-0.000278455 8.80255e-05 0.100104)
(-0.000258843 7.60674e-05 0.0992442)
(-0.000183073 4.85686e-05 0.0929506)
(0.000186838 3.48324e-05 0.0931986)
(0.00026377 5.47081e-05 0.099331)
(0.000282291 6.32112e-05 0.100128)
(0.000267798 6.60502e-05 0.100236)
(0.000247611 6.78272e-05 0.100241)
(0.000225485 6.92321e-05 0.100227)
(0.000202465 7.05231e-05 0.100212)
(0.000179002 7.17236e-05 0.1002)
(0.000155312 7.28595e-05 0.100191)
(0.000131504 7.38933e-05 0.100185)
(0.000107641 7.47983e-05 0.100181)
(8.37476e-05 7.55485e-05 0.100179)
(5.9837e-05 7.61308e-05 0.100177)
(3.5921e-05 7.65119e-05 0.100177)
(1.19901e-05 7.6712e-05 0.100176)
(-1.19348e-05 7.66964e-05 0.100176)
(-3.58635e-05 7.64942e-05 0.100177)
(-5.97823e-05 7.60916e-05 0.100177)
(-8.37016e-05 7.55041e-05 0.100179)
(-0.000107605 7.47447e-05 0.100181)
(-0.000131479 7.38379e-05 0.100185)
(-0.000155314 7.28075e-05 0.100191)
(-0.00017902 7.16994e-05 0.1002)
(-0.000202518 7.05268e-05 0.100212)
(-0.000225532 6.92851e-05 0.100227)
(-0.000247667 6.79051e-05 0.100241)
(-0.000267831 6.61253e-05 0.100236)
(-0.000282286 6.32461e-05 0.100128)
(-0.000263678 5.48555e-05 0.099331)
(-0.000186727 3.5303e-05 0.0931986)
(0.000189244 2.09369e-05 0.0933567)
(0.000266944 3.29193e-05 0.0993852)
(0.000284851 3.79688e-05 0.100142)
(0.000269956 3.96545e-05 0.10024)
(0.000249515 4.07138e-05 0.100242)
(0.000227186 4.15804e-05 0.100227)
(0.000204028 4.23712e-05 0.100211)
(0.000180432 4.31339e-05 0.100198)
(0.000156602 4.38482e-05 0.100189)
(0.000132639 4.45105e-05 0.100183)
(0.000108599 4.50916e-05 0.10018)
(8.45133e-05 4.55775e-05 0.100178)
(6.03926e-05 4.59499e-05 0.100176)
(3.62509e-05 4.62044e-05 0.100176)
(1.21034e-05 4.63235e-05 0.100175)
(-1.20571e-05 4.63216e-05 0.100175)
(-3.6207e-05 4.61808e-05 0.100176)
(-6.0355e-05 4.59236e-05 0.100176)
(-8.44742e-05 4.55362e-05 0.100178)
(-0.000108565 4.50549e-05 0.10018)
(-0.000132619 4.44668e-05 0.100183)
(-0.000156586 4.38221e-05 0.100189)
(-0.000180439 4.31232e-05 0.100198)
(-0.000204037 4.23946e-05 0.100211)
(-0.000227211 4.16374e-05 0.100227)
(-0.000249536 4.07753e-05 0.100242)
(-0.000269971 3.97065e-05 0.10024)
(-0.000284857 3.79598e-05 0.100142)
(-0.000266905 3.30417e-05 0.0993852)
(-0.000189185 2.14558e-05 0.0933567)
(0.000190458 6.72711e-06 0.0934336)
(0.000268539 1.0768e-05 0.0994113)
(0.000286131 1.24149e-05 0.100149)
(0.000271065 1.2955e-05 0.100243)
(0.000250484 1.33094e-05 0.100242)
(0.000228075 1.36395e-05 0.100226)
(0.000204851 1.39684e-05 0.10021)
(0.000181194 1.43053e-05 0.100198)
(0.000157295 1.46366e-05 0.100189)
(0.000133255 1.4951e-05 0.100183)
(0.000109122 1.52323e-05 0.100179)
(8.49278e-05 1.54684e-05 0.100177)
(6.06966e-05 1.5652e-05 0.100176)
(3.64363e-05 1.57742e-05 0.100175)
(1.21556e-05 1.58331e-05 0.100175)
(-1.21231e-05 1.5827e-05 0.100175)
(-3.64037e-05 1.57568e-05 0.100175)
(-6.06627e-05 1.56217e-05 0.100176)
(-8.48987e-05 1.54383e-05 0.100177)
(-0.000109095 1.5191e-05 0.100179)
(-0.000133223 1.4921e-05 0.100183)
(-0.000157273 1.46112e-05 0.100189)
(-0.000181173 1.43065e-05 0.100198)
(-0.000204838 1.40008e-05 0.10021)
(-0.000228065 1.36914e-05 0.100226)
(-0.000250481 1.33833e-05 0.100242)
(-0.000271069 1.29856e-05 0.100243)
(-0.000286132 1.24055e-05 0.100149)
(-0.000268534 1.08692e-05 0.0994113)
(-0.000190434 7.275e-06 0.0934335)
(0.00019043 -7.58326e-06 0.0934334)
(0.000268547 -1.153e-05 0.0994112)
(0.000286156 -1.3246e-05 0.100149)
(0.000271109 -1.3864e-05 0.100242)
(0.000250557 -1.42037e-05 0.100242)
(0.000228166 -1.44051e-05 0.100226)
(0.000204957 -1.45251e-05 0.10021)
(0.000181309 -1.46015e-05 0.100198)
(0.000157409 -1.46376e-05 0.100189)
(0.000133359 -1.46584e-05 0.100183)
(0.000109212 -1.46679e-05 0.100179)
(8.50045e-05 -1.46667e-05 0.100177)
(6.07475e-05 -1.46747e-05 0.100176)
(3.64617e-05 -1.46722e-05 0.100175)
(1.21664e-05 -1.4679e-05 0.100175)
(-1.21449e-05 -1.46866e-05 0.100175)
(-3.64426e-05 -1.46909e-05 0.100175)
(-6.07255e-05 -1.47017e-05 0.100176)
(-8.49798e-05 -1.47068e-05 0.100177)
(-0.00010918 -1.47027e-05 0.100179)
(-0.000133327 -1.46968e-05 0.100183)
(-0.000157369 -1.46586e-05 0.100189)
(-0.000181264 -1.46e-05 0.100198)
(-0.000204915 -1.44925e-05 0.10021)
(-0.000228126 -1.4339e-05 0.100226)
(-0.000250529 -1.41301e-05 0.100242)
(-0.000271095 -1.38123e-05 0.100242)
(-0.000286157 -1.3256e-05 0.100149)
(-0.000268556 -1.14191e-05 0.0994111)
(-0.000190453 -7.04081e-06 0.0934334)
(0.000189198 -2.17917e-05 0.0933563)
(0.000266931 -3.37404e-05 0.0993849)
(0.000284921 -3.88293e-05 0.100142)
(0.0002701 -4.06274e-05 0.10024)
(0.000249716 -4.16407e-05 0.100242)
(0.00022746 -4.2372e-05 0.100227)
(0.00020434 -4.29438e-05 0.100211)
(0.000180765 -4.34213e-05 0.100198)
(0.000156932 -4.38331e-05 0.100189)
(0.000132943 -4.41875e-05 0.100183)
(0.000108869 -4.44841e-05 0.10018)
(8.47197e-05 -4.47363e-05 0.100178)
(6.05427e-05 -4.49142e-05 0.100176)
(3.63403e-05 -4.50555e-05 0.100176)
(1.21091e-05 -4.51162e-05 0.100175)
(-1.21051e-05 -4.51274e-05 0.100175)
(-3.633e-05 -4.50742e-05 0.100176)
(-6.05335e-05 -4.49521e-05 0.100176)
(-8.47016e-05 -4.47757e-05 0.100178)
(-0.000108841 -4.45338e-05 0.10018)
(-0.000132901 -4.42315e-05 0.100183)
(-0.000156876 -4.38651e-05 0.100189)
(-0.000180698 -4.34262e-05 0.100198)
(-0.000204262 -4.29124e-05 0.100211)
(-0.000227387 -4.22999e-05 0.100227)
(-0.000249657 -4.15505e-05 0.100242)
(-0.000270067 -4.05466e-05 0.10024)
(-0.000284911 -3.88169e-05 0.100142)
(-0.000266973 -3.36268e-05 0.0993848)
(-0.000189263 -2.12786e-05 0.0933562)
(0.000186719 -3.57265e-05 0.0931979)
(0.000263728 -5.56039e-05 0.0993304)
(0.000282393 -6.42031e-05 0.100127)
(0.000267997 -6.70967e-05 0.100235)
(0.000247956 -6.88409e-05 0.100241)
(0.000225909 -7.00727e-05 0.100227)
(0.000202969 -7.11095e-05 0.100212)
(0.000179532 -7.20003e-05 0.1002)
(0.000155828 -7.28027e-05 0.100191)
(0.000131985 -7.35033e-05 0.100185)
(0.000108046 -7.41126e-05 0.100181)
(8.40773e-05 -7.46126e-05 0.100179)
(6.00641e-05 -7.50018e-05 0.100177)
(3.60383e-05 -7.52593e-05 0.100177)
(1.20193e-05 -7.54081e-05 0.100176)
(-1.20298e-05 -7.54081e-05 0.100176)
(-3.60482e-05 -7.52919e-05 0.100177)
(-6.00671e-05 -7.50423e-05 0.100177)
(-8.40689e-05 -7.46694e-05 0.100179)
(-0.000108025 -7.41791e-05 0.100181)
(-0.00013194 -7.35672e-05 0.100185)
(-0.000155757 -7.28572e-05 0.100191)
(-0.000179436 -7.20257e-05 0.1002)
(-0.000202852 -7.10849e-05 0.100212)
(-0.000225791 -7.00037e-05 0.100227)
(-0.000247856 -6.87119e-05 0.100241)
(-0.000267942 -6.6984e-05 0.100235)
(-0.000282397 -6.41112e-05 0.100127)
(-0.000263815 -5.54466e-05 0.0993303)
(-0.000186836 -3.52813e-05 0.0931977)
(0.000183057 -4.91264e-05 0.0929495)
(0.000258881 -7.69147e-05 0.0992432)
(0.000278554 -8.90504e-05 0.100103)
(0.000264796 -9.31518e-05 0.100227)
(0.000245169 -9.55475e-05 0.100238)
(0.000223483 -9.73448e-05 0.100227)
(0.000200765 -9.88373e-05 0.100213)
(0.000177543 -0.000100188 0.100202)
(0.00015405 -0.0001014 0.100193)
(0.000130424 -0.000102493 0.100187)
(0.000106736 -0.000103445 0.100183)
(8.30148e-05 -0.000104216 0.10018)
(5.93016e-05 -0.00010483 0.100179)
(3.55733e-05 -0.000105235 0.100178)
(1.1841e-05 -0.000105449 0.100178)
(-1.18695e-05 -0.000105465 0.100178)
(-3.56058e-05 -0.000105266 0.100178)
(-5.9319e-05 -0.000104882 0.100179)
(-8.30273e-05 -0.000104293 0.10018)
(-0.000106722 -0.000103532 0.100183)
(-0.000130379 -0.00010259 0.100187)
(-0.000153968 -0.000101493 0.100193)
(-0.000177413 -0.000100248 0.100202)
(-0.000200604 -9.88435e-05 0.100213)
(-0.000223302 -9.7263e-05 0.100227)
(-0.000245023 -9.53878e-05 0.100238)
(-0.000264709 -9.29416e-05 0.100227)
(-0.000278595 -8.88364e-05 0.100103)
(-0.000259091 -7.66572e-05 0.0992431)
(-0.000183256 -4.88117e-05 0.0929493)
(0.000178271 -6.17935e-05 0.0925972)
(0.000252413 -9.72675e-05 0.0991159)
(0.000273397 -0.000113173 0.100068)
(0.000260364 -0.000118485 0.100215)
(0.000241343 -0.000121592 0.100234)
(0.000220024 -0.000123954 0.100227)
(0.000197654 -0.000125974 0.100215)
(0.00017471 -0.000127822 0.100205)
(0.000151513 -0.000129517 0.100196)
(0.000128196 -0.000131054 0.10019)
(0.000104867 -0.000132376 0.100186)
(8.1536e-05 -0.000133494 0.100183)
(5.82099e-05 -0.000134319 0.100182)
(3.49174e-05 -0.000134912 0.100181)
(1.16214e-05 -0.000135196 0.10018)
(-1.16773e-05 -0.000135212 0.10018)
(-3.49607e-05 -0.000134944 0.100181)
(-5.82585e-05 -0.000134387 0.100182)
(-8.15656e-05 -0.000133583 0.100183)
(-0.000104871 -0.000132492 0.100186)
(-0.000128168 -0.0001312 0.10019)
(-0.000151425 -0.000129659 0.100196)
(-0.000174555 -0.000127949 0.100205)
(-0.000197435 -0.000126032 0.100215)
(-0.00021978 -0.000123881 0.100227)
(-0.000241133 -0.000121392 0.100234)
(-0.00026027 -0.000118109 0.100215)
(-0.000273517 -0.000112756 0.100068)
(-0.000252838 -9.68106e-05 0.0991157)
(-0.000178522 -6.17999e-05 0.0925968)
(0.000172412 -7.3539e-05 0.0921201)
(0.000244325 -0.000116258 0.0989368)
(0.000266831 -0.000136217 0.100018)
(0.000254668 -0.000142772 0.100196)
(0.000236276 -0.000146717 0.100228)
(0.000215472 -0.000149697 0.100226)
(0.000193472 -0.000152347 0.100217)
(0.00017092 -0.000154769 0.100208)
(0.000148115 -0.000157043 0.1002)
(0.000125255 -0.000159085 0.100195)
(0.000102387 -0.000160875 0.10019)
(7.95729e-05 -0.000162329 0.100188)
(5.68083e-05 -0.000163457 0.100186)
(3.40531e-05 -0.000164202 0.100185)
(1.1328e-05 -0.000164599 0.100184)
(-1.14005e-05 -0.000164602 0.100184)
(-3.41294e-05 -0.000164249 0.100185)
(-5.68778e-05 -0.000163524 0.100186)
(-7.96304e-05 -0.000162439 0.100188)
(-0.000102435 -0.000161023 0.10019)
(-0.000125249 -0.000159275 0.100195)
(-0.000148043 -0.000157272 0.1002)
(-0.000170768 -0.000154998 0.100208)
(-0.000193217 -0.000152479 0.100217)
(-0.000215171 -0.000149687 0.100226)
(-0.000236003 -0.000146427 0.100228)
(-0.000254609 -0.000142214 0.100196)
(-0.00026713 -0.0001354 0.100018)
(-0.00024519 -0.000115386 0.0989364)
(-0.0001726 -7.41936e-05 0.0921195)
(0.000165425 -8.42028e-05 0.0914911)
(0.000234666 -0.000133152 0.098688)
(0.000258794 -0.000157725 0.0999468)
(0.000247535 -0.00016567 0.100169)
(0.000229865 -0.000170567 0.100217)
(0.000209608 -0.000174385 0.100224)
(0.000188121 -0.000177768 0.100219)
(0.000166051 -0.000180937 0.100212)
(0.000143781 -0.000183872 0.100206)
(0.000121492 -0.000186544 0.100201)
(9.9283e-05 -0.000188838 0.100197)
(7.71383e-05 -0.000190722 0.100194)
(5.5046e-05 -0.00019214 0.100193)
(3.30066e-05 -0.000193089 0.100192)
(1.09698e-05 -0.000193568 0.100191)
(-1.10643e-05 -0.000193588 0.100191)
(-3.31014e-05 -0.000193122 0.100192)
(-5.51439e-05 -0.000192216 0.100193)
(-7.72427e-05 -0.000190824 0.100195)
(-9.93633e-05 -0.000189025 0.100197)
(-0.000121558 -0.000186772 0.100201)
(-0.000143776 -0.000184201 0.100206)
(-0.000165921 -0.00018127 0.100212)
(-0.000187878 -0.000178059 0.100219)
(-0.000209283 -0.000174423 0.100224)
(-0.000229584 -0.000170213 0.100217)
(-0.000247555 -0.000164803 0.100169)
(-0.000259456 -0.000156191 0.0999467)
(-0.000236073 -0.00013176 0.0986873)
(-0.000165464 -8.5872e-05 0.0914899)
(0.000157366 -9.36256e-05 0.0906759)
(0.000223294 -0.000147218 0.0983415)
(0.00024916 -0.00017698 0.0998462)
(0.000238853 -0.000186785 0.10013)
(0.000221881 -0.000192858 0.1002)
(0.000202335 -0.000197772 0.100218)
(0.00018142 -0.000202135 0.10022)
(0.000160005 -0.000206191 0.100216)
(0.000138438 -0.000209969 0.100212)
(0.000116938 -0.000213334 0.100209)
(9.55247e-05 -0.000216249 0.100206)
(7.42209e-05 -0.000218569 0.100204)
(5.29975e-05 -0.000220316 0.100203)
(3.17704e-05 -0.00022147 0.100202)
(1.05518e-05 -0.000222043 0.100201)
(-1.06567e-05 -0.00022205 0.100201)
(-3.18796e-05 -0.0002215 0.100202)
(-5.3109e-05 -0.000220376 0.100203)
(-7.43635e-05 -0.000218683 0.100204)
(-9.56782e-05 -0.000216399 0.100206)
(-0.000117058 -0.000213638 0.100209)
(-0.000138519 -0.000210341 0.100212)
(-0.000159986 -0.000206689 0.100216)
(-0.00018125 -0.00020256 0.10022)
(-0.000202024 -0.000197958 0.100218)
(-0.000221678 -0.000192464 0.1002)
(-0.00023902 -0.000185421 0.10013)
(-0.000250292 -0.000174664 0.0998459)
(-0.000225566 -0.000144841 0.0983404)
(-0.000156568 -9.70746e-05 0.090674)
(0.000147983 -0.000101467 0.0896282)
(0.00021013 -0.000157429 0.0978505)
(0.000237687 -0.000193286 0.0996994)
(0.000228281 -0.000205514 0.100069)
(0.000212245 -0.000213311 0.100172)
(0.000193384 -0.000219658 0.100206)
(0.000173307 -0.000225261 0.100216)
(0.000152692 -0.00023045 0.100219)
(0.000132077 -0.000235176 0.100219)
(0.000111551 -0.000239413 0.100218)
(9.11917e-05 -0.000242941 0.100217)
(7.09232e-05 -0.000245775 0.100216)
(5.06477e-05 -0.000247833 0.100216)
(3.04011e-05 -0.000249179 0.100215)
(1.01087e-05 -0.000249845 0.100215)
(-1.02075e-05 -0.000249849 0.100215)
(-3.05105e-05 -0.000249208 0.100215)
(-5.07858e-05 -0.000247861 0.100216)
(-7.10522e-05 -0.000245857 0.100216)
(-9.13789e-05 -0.000243102 0.100217)
(-0.000111751 -0.00023967 0.100218)
(-0.000132245 -0.000235646 0.100219)
(-0.000152785 -0.000231024 0.100219)
(-0.000173245 -0.000225917 0.100216)
(-0.000193258 -0.000219991 0.100206)
(-0.000212082 -0.000212937 0.100172)
(-0.000228845 -0.000203678 0.100069)
(-0.000239358 -0.000189803 0.099699)
(-0.000213113 -0.000153938 0.097849)
(-0.000146209 -0.000107056 0.0896252)
(0.000137676 -0.000107804 0.0882574)
(0.000194482 -0.000161995 0.097123)
(0.000224144 -0.000205649 0.0994716)
(0.000215675 -0.000221199 0.0999725)
(0.00020059 -0.000231532 0.100124)
(0.000182707 -0.000239675 0.100181)
(0.00016349 -0.000246898 0.100204)
(0.000144013 -0.000253424 0.100215)
(0.000124597 -0.000259331 0.10022)
(0.000105406 -0.000264466 0.100224)
(8.63232e-05 -0.000268713 0.100227)
(6.72413e-05 -0.000271998 0.100229)
(4.81569e-05 -0.000274368 0.10023)
(2.89154e-05 -0.000275886 0.100231)
(9.61569e-06 -0.000276619 0.100231)
(-9.71666e-06 -0.000276632 0.100231)
(-2.90031e-05 -0.000275877 0.100231)
(-4.82506e-05 -0.000274387 0.10023)
(-6.74103e-05 -0.000272025 0.100229)
(-8.64666e-05 -0.000268819 0.100227)
(-0.000105609 -0.0002647 0.100224)
(-0.00012479 -0.000259766 0.10022)
(-0.000144175 -0.000254097 0.100215)
(-0.000163556 -0.000247656 0.100204)
(-0.000182603 -0.000240333 0.100181)
(-0.000200744 -0.000231129 0.100125)
(-0.000216367 -0.000219137 0.0999728)
(-0.000226452 -0.000200994 0.0994717)
(-0.000198053 -0.000156948 0.0971217)
(-0.000133424 -0.000116272 0.0882539)
(0.000122636 -0.000114054 0.086424)
(0.000177532 -0.000156868 0.0959707)
(0.000207665 -0.000213004 0.0990865)
(0.000200781 -0.000233286 0.0998096)
(0.000186562 -0.000246646 0.100039)
(0.000169515 -0.00025725 0.100126)
(0.000151453 -0.000266396 0.100166)
(0.000133495 -0.000274536 0.100189)
(0.000115842 -0.000281832 0.100205)
(9.83901e-05 -0.000287896 0.100217)
(8.09369e-05 -0.000292831 0.100226)
(6.33232e-05 -0.00029656 0.100233)
(4.54273e-05 -0.000299145 0.100238)
(2.73673e-05 -0.000300824 0.100241)
(9.10377e-06 -0.000301619 0.100242)
(-9.19218e-06 -0.000301606 0.100242)
(-2.74464e-05 -0.000300812 0.100241)
(-4.55248e-05 -0.000299165 0.100238)
(-6.33782e-05 -0.000296541 0.100233)
(-8.10299e-05 -0.000292888 0.100226)
(-9.84381e-05 -0.000288131 0.100217)
(-0.000115898 -0.000282195 0.100205)
(-0.000133401 -0.000275287 0.100189)
(-0.000151369 -0.000267311 0.100166)
(-0.000169276 -0.000258082 0.100126)
(-0.000186521 -0.000246812 0.100039)
(-0.000201944 -0.000231114 0.0998109)
(-0.000209684 -0.000207831 0.0990881)
(-0.000180466 -0.000151413 0.0959717)
(-0.000116246 -0.000123928 0.086421)
(0.000109926 -0.000102005 0.0838825)
(0.000154919 -0.000149166 0.0940106)
(0.000187743 -0.000215744 0.0983736)
(0.000182524 -0.000240891 0.0995085)
(0.000167849 -0.000257628 0.0998446)
(0.000151582 -0.000271198 0.0999722)
(0.000135555 -0.000282683 0.100043)
(0.000120003 -0.000293018 0.100093)
(0.000105187 -0.000301311 0.100131)
(9.02212e-05 -0.00030845 0.100161)
(7.47727e-05 -0.0003138 0.100184)
(5.89042e-05 -0.000317797 0.1002)
(4.24784e-05 -0.000320661 0.100212)
(2.55837e-05 -0.000322347 0.10022)
(8.53066e-06 -0.000323223 0.100223)
(-8.65392e-06 -0.00032324 0.100223)
(-2.57363e-05 -0.000322393 0.10022)
(-4.25295e-05 -0.000320606 0.100212)
(-5.88954e-05 -0.000317876 0.1002)
(-7.4711e-05 -0.000313941 0.100184)
(-8.99062e-05 -0.000308645 0.100161)
(-0.000104565 -0.000302048 0.100131)
(-0.000119308 -0.000293706 0.100093)
(-0.000134221 -0.000284165 0.100043)
(-0.000150505 -0.000272438 0.0999724)
(-0.000167148 -0.000258488 0.0998458)
(-0.000182939 -0.000238794 0.0995117)
(-0.000189412 -0.000212501 0.0983793)
(-0.000157481 -0.000141997 0.0940188)
(-0.000101788 -0.000114041 0.083884)
(8.0099e-05 -0.000160187 0.0804844)