/*--------------------------------*- C++ -*----------------------------------*\
| =========                 |                                                 |
| \\      /  F ield         | OpenFOAM: The Open Source CFD Toolbox           |
|  \\    /   O peration     | Version:  2312                                  |
|   \\  /    A nd           | Website:  www.openfoam.com                      |
|    \\/     M anipulation  |                                                 |
\*---------------------------------------------------------------------------*/
FoamFile
{
    version     2.0;
    format      ascii;
    arch        "LSB;label=32;scalar=64";
    class       volScalarField;
    location    "400";
    object      alphat;
}
// * * * * * * * * * * * * * * * * * * * * * * * * * * * * * * * * * * * * * //

dimensions      [1 -1 -1 0 0 0 0];

internalField   nonuniform List<scalar> 
27000
(
0.00395245
0.00670764
0.00936431
0.0117401
0.0140484
0.0162026
0.0181581
0.0198096
0.02123
0.022443
0.023444
0.0242365
0.0248279
0.0252212
0.0254175
0.0254177
0.0252215
0.0248285
0.0242372
0.0234448
0.0224437
0.0212306
0.0198102
0.0181586
0.016203
0.0140487
0.0117403
0.00936447
0.00670771
0.0039525
0.00575184
0.00128059
0.00516095
0.00907798
0.0131627
0.017042
0.0207067
0.0241146
0.0272015
0.0299471
0.0323323
0.0343191
0.0358553
0.0369007
0.0374296
0.0374292
0.0368993
0.0358531
0.0343163
0.0323294
0.0299445
0.0271989
0.0241124
0.0207052
0.0170413
0.0131624
0.00907781
0.00516087
0.0012805
0.00575194
0.00922727
0.00714128
0.0145145
0.0261371
0.0368644
0.0462214
0.0547783
0.0628045
0.0701182
0.0765827
0.0821236
0.0866762
0.0901643
0.0925239
0.0937129
0.0937114
0.0925195
0.0901572
0.086667
0.0821134
0.0765723
0.0701077
0.062795
0.0547709
0.0462167
0.0368627
0.0261374
0.0145154
0.00714165
0.00922756
0.0121557
0.010841
0.0260407
0.0526293
0.0782527
0.0963501
0.109826
0.120873
0.130206
0.137984
0.144375
0.149462
0.153268
0.155803
0.157069
0.157068
0.155799
0.153262
0.149454
0.144366
0.137973
0.130195
0.120862
0.109818
0.0963447
0.0782504
0.0526289
0.0260416
0.0108415
0.0121562
0.0149202
0.014476
0.0368568
0.0761794
0.113305
0.139154
0.155979
0.167783
0.17671
0.183224
0.188255
0.192167
0.195033
0.196917
0.197852
0.197851
0.196915
0.195029
0.192161
0.188248
0.183216
0.176702
0.167776
0.155973
0.139149
0.113302
0.0761769
0.0368556
0.0144761
0.0149209
0.0174807
0.0184142
0.047688
0.0952206
0.137813
0.16719
0.185385
0.19677
0.204292
0.209404
0.212994
0.215574
0.217384
0.218543
0.219111
0.21911
0.218541
0.21738
0.21557
0.212989
0.209398
0.204286
0.196764
0.185379
0.167186
0.137807
0.0952141
0.047683
0.0184135
0.0174816
0.0198131
0.0225605
0.058576
0.111485
0.155729
0.185079
0.202814
0.213182
0.219332
0.223087
0.225457
0.227
0.228005
0.228619
0.228912
0.228912
0.228617
0.228002
0.226996
0.225452
0.223082
0.219327
0.213177
0.202808
0.185072
0.15572
0.111474
0.0585675
0.0225589
0.0198144
0.0218978
0.0267598
0.0691306
0.125585
0.169821
0.197312
0.213333
0.222232
0.227081
0.229723
0.231182
0.232007
0.232481
0.232744
0.232863
0.232862
0.232742
0.232477
0.232003
0.231177
0.229718
0.227075
0.222226
0.213326
0.197304
0.16981
0.12557
0.0691176
0.0267565
0.0218998
0.0237112
0.0308861
0.0789968
0.137675
0.18096
0.206038
0.219959
0.227272
0.230944
0.232711
0.233527
0.233885
0.234036
0.234095
0.234114
0.234114
0.234093
0.234033
0.233881
0.233522
0.232706
0.230938
0.227266
0.219951
0.206028
0.180945
0.137656
0.0789798
0.0308815
0.0237135
0.0252656
0.034779
0.0879452
0.147805
0.188833
0.212097
0.2242
0.230123
0.232824
0.233934
0.234312
0.234384
0.234352
0.234304
0.234274
0.234274
0.234302
0.234349
0.23438
0.234307
0.233929
0.232818
0.230116
0.224191
0.212085
0.188817
0.147784
0.0879257
0.0347734
0.0252682
0.0265613
0.0382842
0.0957593
0.156289
0.195384
0.216549
0.227011
0.231779
0.233723
0.23436
0.234454
0.23436
0.234234
0.234137
0.234085
0.234085
0.234134
0.234231
0.234355
0.234448
0.234354
0.233716
0.231771
0.227001
0.216537
0.195367
0.156266
0.0957387
0.038278
0.026564
0.0275977
0.0412653
0.102223
0.163058
0.200489
0.219838
0.22892
0.232771
0.234149
0.234461
0.234376
0.234192
0.234025
0.23391
0.233854
0.233853
0.233908
0.234021
0.234187
0.23437
0.234454
0.234142
0.232762
0.22891
0.219825
0.200472
0.163036
0.102202
0.0412589
0.0276004
0.0283748
0.0436074
0.107187
0.168134
0.20421
0.222154
0.230193
0.23337
0.234352
0.234449
0.234258
0.23403
0.233849
0.233733
0.233678
0.233677
0.233731
0.233846
0.234025
0.234253
0.234442
0.234344
0.233361
0.230182
0.222142
0.204193
0.168111
0.107167
0.0436012
0.0283774
0.0288927
0.0452204
0.11055
0.171533
0.206638
0.223628
0.230973
0.233714
0.234447
0.234415
0.234167
0.233919
0.233736
0.233624
0.233572
0.233572
0.233623
0.233733
0.233915
0.234162
0.234409
0.234439
0.233706
0.230964
0.223616
0.206622
0.171512
0.110532
0.0452148
0.0288951
0.0291516
0.0460426
0.112246
0.17323
0.207834
0.224343
0.231345
0.233871
0.234485
0.234394
0.234121
0.233866
0.233684
0.233575
0.233526
0.233525
0.233574
0.233682
0.233863
0.234117
0.234388
0.234479
0.233864
0.231336
0.224332
0.20782
0.173212
0.11223
0.0460377
0.0291537
0.0291513
0.0460432
0.112248
0.173233
0.207836
0.224344
0.231346
0.233873
0.234487
0.234395
0.234123
0.233868
0.233686
0.233578
0.233528
0.233528
0.233577
0.233685
0.233866
0.234119
0.234391
0.234482
0.233867
0.231339
0.224335
0.207824
0.173217
0.112235
0.0460393
0.0291531
0.028892
0.0452222
0.110554
0.171541
0.206643
0.223632
0.230977
0.233718
0.234451
0.23442
0.234172
0.233925
0.233743
0.233631
0.23358
0.23358
0.233631
0.233742
0.233924
0.23417
0.234417
0.234448
0.233714
0.230972
0.223625
0.206634
0.171528
0.110544
0.0452193
0.0288935
0.0283737
0.0436102
0.107194
0.168145
0.204217
0.22216
0.230199
0.233377
0.234359
0.234457
0.234267
0.23404
0.23386
0.233745
0.233691
0.233691
0.233745
0.233859
0.234039
0.234266
0.234456
0.234357
0.233374
0.230195
0.222155
0.20421
0.168135
0.107186
0.0436082
0.0283748
0.0275963
0.0412688
0.102231
0.163068
0.200497
0.219845
0.228928
0.23278
0.234159
0.234472
0.234388
0.234206
0.23404
0.233927
0.233872
0.233872
0.233927
0.23404
0.234206
0.234388
0.234472
0.234159
0.232779
0.228926
0.219842
0.200492
0.163061
0.102227
0.0412676
0.0275971
0.0265597
0.038288
0.0957682
0.156298
0.195393
0.216559
0.227021
0.231791
0.233736
0.234375
0.23447
0.234378
0.234255
0.234159
0.234109
0.234109
0.234159
0.234255
0.234379
0.234471
0.234376
0.233736
0.231791
0.22702
0.216557
0.19539
0.156294
0.0957661
0.0382875
0.0265602
0.0252639
0.034783
0.087955
0.147816
0.188844
0.212109
0.224213
0.230138
0.23284
0.233953
0.234333
0.234408
0.234379
0.234333
0.234304
0.234304
0.234333
0.234379
0.234409
0.234334
0.233954
0.232841
0.230139
0.224213
0.212108
0.188843
0.147814
0.0879545
0.0347829
0.0252642
0.0237095
0.03089
0.0790076
0.137687
0.180978
0.206055
0.219976
0.22729
0.230964
0.232734
0.233552
0.233915
0.234068
0.234129
0.23415
0.23415
0.234129
0.234068
0.233915
0.233553
0.232736
0.230966
0.227292
0.219977
0.206055
0.180978
0.137687
0.0790078
0.0308901
0.0237096
0.0218963
0.0267628
0.0691388
0.125595
0.169839
0.19733
0.213352
0.222254
0.227105
0.22975
0.231213
0.232042
0.232519
0.232784
0.232904
0.232904
0.232784
0.232519
0.232042
0.231214
0.229752
0.227107
0.222256
0.213355
0.197332
0.169842
0.125598
0.0691411
0.0267631
0.0218962
0.019812
0.022562
0.0585804
0.111492
0.155742
0.185099
0.202837
0.213208
0.219361
0.223121
0.225495
0.227042
0.228051
0.228666
0.22896
0.22896
0.228666
0.22805
0.227042
0.225496
0.223122
0.219364
0.213212
0.202841
0.185103
0.155748
0.111498
0.0585847
0.0225626
0.0198118
0.0174798
0.0184143
0.0476874
0.0952244
0.137826
0.167213
0.185412
0.196801
0.204328
0.209446
0.213041
0.215626
0.217438
0.218598
0.219165
0.219165
0.218597
0.217437
0.215625
0.213041
0.209447
0.204331
0.196806
0.185419
0.16722
0.137835
0.0952339
0.0476937
0.0184152
0.0174796
0.0149197
0.0144754
0.0368543
0.0761797
0.113316
0.139174
0.156006
0.16782
0.176756
0.18328
0.188312
0.192229
0.195098
0.196982
0.197916
0.197916
0.196981
0.195097
0.192229
0.188312
0.183277
0.176758
0.167825
0.156015
0.139184
0.113327
0.0761908
0.0368603
0.0144761
0.0149194
0.0121554
0.0108401
0.0260371
0.0526273
0.0782576
0.0963623
0.109845
0.120899
0.130242
0.13803
0.144434
0.149531
0.153341
0.155877
0.157144
0.157144
0.155876
0.153339
0.149529
0.144433
0.138032
0.130246
0.120906
0.109854
0.0963719
0.0782671
0.0526361
0.026041
0.0108402
0.0121553
0.00922721
0.00714089
0.0145119
0.0261349
0.0368654
0.0462264
0.0547893
0.0628216
0.0701424
0.0766157
0.0821695
0.086731
0.090222
0.0925823
0.0937726
0.0937723
0.0925811
0.0902195
0.0867279
0.0821668
0.0766149
0.0701432
0.0628237
0.0547922
0.0462302
0.0368688
0.0261378
0.0145129
0.00714138
0.00922722
0.00575201
0.00128069
0.00516061
0.00907744
0.0131628
0.0170427
0.0207083
0.0241172
0.0272055
0.029953
0.032342
0.0343314
0.0358691
0.0369154
0.037445
0.0374449
0.036915
0.0358684
0.0343306
0.0323413
0.0299525
0.0272052
0.0241171
0.0207083
0.0170427
0.0131623
0.00907691
0.00515965
0.00128064
0.00575193
0.00395234
0.00670714
0.00936367
0.0117391
0.0140469
0.0162006
0.0181556
0.0198066
0.0212264
0.0224388
0.0234384
0.0242302
0.0248212
0.0252141
0.0254103
0.0254103
0.0252143
0.0248215
0.0242305
0.0234388
0.0224391
0.0212267
0.0198069
0.0181559
0.0162008
0.014047
0.0117391
0.00936364
0.00670698
0.00395226
0.00355765
0.00608266
0.00869024
0.0110687
0.0134489
0.0156986
0.0177703
0.0195428
0.0210776
0.0224006
0.0235211
0.0244313
0.0251175
0.0255761
0.0258057
0.0258056
0.0255759
0.0251172
0.024431
0.0235208
0.0224005
0.0210776
0.0195428
0.0177703
0.0156986
0.013449
0.0110687
0.00869027
0.00608277
0.00355759
0.00511566
0.00160717
0.00744509
0.0110157
0.0145991
0.0176157
0.0202117
0.022614
0.0247014
0.0264828
0.0279551
0.0291212
0.0299938
0.0305764
0.0308684
0.0308685
0.0305769
0.0299946
0.0291224
0.0279564
0.0264841
0.024703
0.0226158
0.0202136
0.0176176
0.014601
0.0110173
0.00744652
0.00160728
0.00511525
0.00868088
0.0101803
0.0132273
0.0167046
0.021865
0.0273081
0.0323332
0.0367231
0.0407234
0.0442941
0.0473342
0.0497909
0.0516419
0.0528751
0.0534927
0.0534936
0.052878
0.0516468
0.0497981
0.0473418
0.0443016
0.0407312
0.0367306
0.0323389
0.0273113
0.0218667
0.0167055
0.0132263
0.0101789
0.00868007
0.0115685
0.0133995
0.0179037
0.0256958
0.0360161
0.0466788
0.0561127
0.0643049
0.0715692
0.0780888
0.0837061
0.0882509
0.091664
0.0939256
0.0950519
0.0950538
0.0939311
0.0916724
0.0882609
0.0837154
0.0780964
0.071576
0.0643083
0.0561112
0.046674
0.036014
0.025696
0.0179018
0.0133988
0.0115675
0.0144279
0.0158817
0.0228045
0.0359441
0.0545614
0.0740571
0.0901469
0.102621
0.112767
0.121504
0.128674
0.134249
0.138329
0.14092
0.14218
0.142182
0.140924
0.138333
0.134253
0.128678
0.121508
0.112769
0.102619
0.0901381
0.0740458
0.0545525
0.0359417
0.022806
0.0158812
0.0144268
0.0171461
0.0181047
0.0286193
0.0471443
0.0736069
0.100254
0.122387
0.138259
0.149782
0.158588
0.165388
0.170511
0.174174
0.176509
0.177642
0.177643
0.176513
0.174179
0.170517
0.165395
0.158596
0.149788
0.138262
0.122386
0.100249
0.0735988
0.0471406
0.0286233
0.0181039
0.017145
0.0196596
0.0205471
0.0339725
0.0583483
0.0910798
0.122624
0.147002
0.164257
0.176215
0.184644
0.190693
0.195017
0.197999
0.199869
0.200769
0.20077
0.199873
0.198006
0.195025
0.190703
0.184655
0.176226
0.164266
0.147008
0.122627
0.0910797
0.0583503
0.0339779
0.0205491
0.0196583
0.0219631
0.0230285
0.039052
0.0688987
0.106106
0.139874
0.164876
0.182196
0.193825
0.201595
0.206819
0.210332
0.212639
0.214039
0.214701
0.214703
0.214044
0.212647
0.210342
0.206831
0.201609
0.193839
0.182208
0.164886
0.139884
0.106117
0.0689098
0.0390601
0.0230319
0.0219609
0.0240622
0.0253398
0.0439215
0.0788051
0.119038
0.153256
0.17784
0.19444
0.205262
0.212189
0.216591
0.219372
0.221095
0.222095
0.222554
0.222556
0.2221
0.221104
0.219384
0.216605
0.212205
0.205278
0.194456
0.177855
0.153272
0.119058
0.0788249
0.0439319
0.0253441
0.0240597
0.0259014
0.0274189
0.0483424
0.0874781
0.130202
0.163811
0.187342
0.202831
0.212629
0.218656
0.22229
0.224445
0.225693
0.226376
0.226677
0.226679
0.226381
0.225703
0.224457
0.222305
0.218673
0.212646
0.202848
0.187358
0.163828
0.130223
0.0875032
0.0483538
0.0274235
0.0258987
0.0274598
0.0292314
0.0521923
0.0946471
0.138559
0.171775
0.194236
0.208578
0.217357
0.222542
0.225507
0.227151
0.228031
0.228476
0.228661
0.228663
0.228482
0.228041
0.227163
0.225522
0.222559
0.217375
0.208596
0.194254
0.171793
0.138581
0.0946754
0.0522035
0.0292361
0.027457
0.0287228
0.0307412
0.0554083
0.100395
0.144907
0.177633
0.199141
0.212474
0.220368
0.224843
0.227268
0.228519
0.229128
0.229403
0.229507
0.229509
0.229409
0.229137
0.228531
0.227283
0.22486
0.220386
0.212492
0.199159
0.177652
0.14493
0.100425
0.055419
0.0307457
0.02872
0.0296792
0.0319129
0.0579179
0.104767
0.149563
0.181791
0.20251
0.215039
0.222243
0.226176
0.2282
0.229169
0.229591
0.229753
0.229804
0.229806
0.229759
0.2296
0.229181
0.228214
0.226192
0.22226
0.215057
0.202529
0.181811
0.149587
0.104796
0.0579276
0.031917
0.0296765
0.030321
0.0327155
0.0596426
0.10774
0.152649
0.184478
0.204629
0.2166
0.223333
0.226903
0.228665
0.229454
0.22976
0.229854
0.229873
0.229875
0.229859
0.229768
0.229465
0.228678
0.226918
0.223349
0.216617
0.204647
0.184497
0.152672
0.107768
0.0596508
0.0327191
0.0303184
0.0306431
0.033127
0.0605248
0.109238
0.154188
0.185799
0.205654
0.217339
0.223834
0.227223
0.228856
0.229558
0.229808
0.22987
0.229874
0.229875
0.229874
0.229815
0.229566
0.228867
0.227236
0.223848
0.217354
0.20567
0.185817
0.15421
0.109264
0.0605318
0.0331302
0.0306407
0.0306431
0.0331274
0.0605252
0.109235
0.154186
0.185797
0.205652
0.217337
0.223832
0.227221
0.228853
0.229555
0.229806
0.229867
0.229871
0.229872
0.22987
0.229811
0.229562
0.228862
0.227231
0.223843
0.21735
0.205666
0.185813
0.154205
0.109258
0.0605304
0.0331299
0.030641
0.030321
0.0327173
0.0596442
0.107731
0.152642
0.184472
0.204623
0.216594
0.223326
0.226896
0.228658
0.229447
0.229752
0.229845
0.229864
0.229864
0.229847
0.229756
0.229452
0.228665
0.226904
0.223335
0.216604
0.204634
0.184485
0.152658
0.107751
0.0596472
0.0327187
0.0303192
0.0296792
0.0319158
0.0579203
0.104751
0.14955
0.18178
0.2025
0.215028
0.222231
0.226164
0.228188
0.229156
0.229577
0.229738
0.229788
0.229788
0.229739
0.229579
0.229159
0.228192
0.226169
0.222237
0.215035
0.202507
0.18179
0.149563
0.104767
0.0579214
0.0319164
0.0296777
0.0287227
0.0307447
0.0554109
0.10037
0.144887
0.177616
0.199125
0.212457
0.22035
0.224825
0.227249
0.228498
0.229107
0.22938
0.229483
0.229483
0.229381
0.229108
0.2285
0.227251
0.224828
0.220354
0.212461
0.19913
0.177622
0.144896
0.100382
0.0554101
0.0307446
0.0287215
0.0274597
0.029235
0.0521974
0.0946177
0.138534
0.171752
0.194214
0.208555
0.217333
0.222517
0.22548
0.227122
0.228002
0.228445
0.228628
0.228628
0.228445
0.228002
0.227123
0.225481
0.222518
0.217335
0.208557
0.194216
0.171755
0.138539
0.0946262
0.0521939
0.0292343
0.0274588
0.0259012
0.0274215
0.0483448
0.0874421
0.130169
0.16378
0.187312
0.202801
0.212598
0.218624
0.222255
0.224408
0.225654
0.226335
0.226635
0.226635
0.226335
0.225655
0.224408
0.222256
0.218625
0.212599
0.202801
0.187312
0.163782
0.130172
0.0874492
0.0483415
0.0274207
0.0259006
0.0240619
0.0253407
0.0439143
0.0787627
0.118989
0.153216
0.177802
0.194403
0.205225
0.21215
0.216548
0.219326
0.221047
0.222045
0.222503
0.222504
0.222046
0.221048
0.219326
0.216549
0.21215
0.205226
0.194404
0.177802
0.153216
0.118993
0.0787697
0.0439167
0.0253402
0.0240615
0.0219627
0.0230279
0.03905
0.0688613
0.106056
0.139828
0.164831
0.182153
0.193782
0.201548
0.206766
0.210274
0.212579
0.21398
0.214643
0.214644
0.213982
0.212581
0.210276
0.206768
0.201549
0.193783
0.182153
0.16483
0.139827
0.106057
0.068863
0.0390469
0.0230276
0.0219626
0.0196588
0.0205454
0.0339744
0.0583289
0.0910346
0.122566
0.146948
0.164208
0.176165
0.184587
0.190626
0.194943
0.197925
0.199799
0.200703
0.200704
0.199802
0.197928
0.194947
0.190629
0.184589
0.176166
0.164209
0.146948
0.122565
0.0910316
0.0583242
0.0339695
0.0205456
0.0196588
0.0171451
0.0180965
0.0286245
0.0471352
0.0735733
0.100198
0.122321
0.138202
0.14972
0.158511
0.165296
0.170409
0.174074
0.176423
0.177564
0.177566
0.176427
0.17408
0.170416
0.165303
0.158517
0.149723
0.138204
0.122322
0.100197
0.0735684
0.0471286
0.0286184
0.0181004
0.0171453
0.0144267
0.0158754
0.0228076
0.035953
0.0545532
0.0740173
0.0900888
0.102553
0.112681
0.12139
0.12854
0.1341
0.138183
0.140807
0.14208
0.142082
0.140813
0.138194
0.134113
0.128553
0.121406
0.112692
0.102561
0.0900941
0.0740185
0.0545478
0.0359431
0.0228034
0.015879
0.0144273
0.0115675
0.0133956
0.0179028
0.0257035
0.0360245
0.0466718
0.0560966
0.0642775
0.0715224
0.0779984
0.0835817
0.088108
0.0915223
0.0937938
0.0949244
0.0949273
0.0938031
0.0915389
0.0881292
0.083603
0.0780153
0.0715333
0.0642846
0.0561004
0.0466729
0.0360233
0.0256989
0.0179033
0.0133991
0.0115681
0.00868031
0.0101809
0.0132282
0.016708
0.0218703
0.0273143
0.0323388
0.0367276
0.0407232
0.0442845
0.0472954
0.0497468
0.0516161
0.0528675
0.0534885
0.0534887
0.0528691
0.0516236
0.0497573
0.047306
0.0442873
0.0407234
0.0367264
0.0323369
0.02731
0.0218669
0.016706
0.0132282
0.0101823
0.00868072
0.00511541
0.00160635
0.00744355
0.0110129
0.0145951
0.0176104
0.0202078
0.0226105
0.0246985
0.0264803
0.0279508
0.0291168
0.0299902
0.0305735
0.0308655
0.0308653
0.0305729
0.0299895
0.029116
0.02795
0.0264794
0.0246977
0.0226101
0.020208
0.0176135
0.0145978
0.0110147
0.00744455
0.00160674
0.00511566
0.00355768
0.00608279
0.00869047
0.0110691
0.0134495
0.0156994
0.0177713
0.0195437
0.0210786
0.0224019
0.0235243
0.024435
0.0251215
0.0255804
0.0258101
0.0258101
0.0255803
0.0251215
0.024435
0.0235243
0.022402
0.0210787
0.0195439
0.0177716
0.0156998
0.01345
0.0110696
0.00869101
0.00608324
0.0035579
0.00337628
0.00573967
0.0082536
0.0105685
0.012891
0.0150851
0.0171005
0.0188375
0.0203604
0.0216786
0.0227793
0.0236606
0.0243242
0.0247682
0.0249906
0.0249905
0.0247678
0.0243235
0.0236596
0.0227782
0.0216772
0.020359
0.0188362
0.0170994
0.0150844
0.0128907
0.0105686
0.00825403
0.00574034
0.00337675
0.00489674
0.00256042
0.0107551
0.0160415
0.0211048
0.025582
0.029387
0.0323496
0.0346231
0.0363409
0.0376366
0.0386073
0.0393059
0.0397604
0.0399846
0.0399842
0.0397593
0.0393043
0.0386055
0.0376348
0.0363395
0.034622
0.0323498
0.0293886
0.0255847
0.0211084
0.0160452
0.0107588
0.00256157
0.00489771
0.00830809
0.0131815
0.0173046
0.0210685
0.0240829
0.0271831
0.030171
0.0330342
0.0357825
0.0382875
0.040459
0.0422583
0.0436477
0.0445957
0.0450761
0.0450768
0.0445976
0.0436502
0.0422604
0.0404602
0.0382874
0.0357814
0.0330384
0.0301755
0.0271871
0.0240864
0.0210715
0.017308
0.0131864
0.00830929
0.0110748
0.0183064
0.0233271
0.0248541
0.0286643
0.0349921
0.0416053
0.0477685
0.0532455
0.0579015
0.0617691
0.0649301
0.0673462
0.0689869
0.0698157
0.0698169
0.0689905
0.067352
0.0649376
0.0617775
0.0579086
0.053246
0.0477542
0.0415931
0.0349857
0.0286618
0.0248534
0.0233315
0.018313
0.0110763
0.0137963
0.0222392
0.0264224
0.029526
0.0387168
0.0506433
0.0618963
0.0716854
0.0797973
0.0866484
0.0923311
0.0969518
0.100455
0.102961
0.10425
0.104253
0.102969
0.10047
0.0969709
0.0923495
0.0866568
0.0797978
0.0716794
0.0618928
0.0506417
0.0387128
0.0295218
0.0264238
0.0222439
0.0137977
0.0164103
0.025655
0.0286515
0.0359006
0.0507503
0.068499
0.0856458
0.100847
0.112986
0.122463
0.129855
0.135521
0.139595
0.142254
0.143578
0.143578
0.142255
0.139599
0.135531
0.129862
0.12246
0.112974
0.100831
0.0856301
0.0684881
0.0507421
0.03589
0.0286509
0.0256587
0.0164111
0.0188766
0.0282471
0.0310286
0.0435953
0.0630439
0.0861419
0.109518
0.128513
0.142466
0.152721
0.160318
0.165892
0.169808
0.172301
0.173516
0.173515
0.172298
0.169803
0.165886
0.160307
0.152705
0.142444
0.128488
0.109489
0.0861151
0.0630275
0.0435814
0.0310261
0.0282465
0.0188771
0.0211498
0.0303202
0.034128
0.0510701
0.0747733
0.103164
0.129567
0.149771
0.164379
0.174759
0.182121
0.187297
0.190815
0.193001
0.194049
0.194047
0.192995
0.190805
0.187284
0.182104
0.174738
0.164354
0.149744
0.129538
0.103133
0.0747505
0.0510582
0.0341197
0.0303169
0.0211506
0.0231849
0.0319976
0.0375199
0.0574549
0.0850928
0.117696
0.145082
0.165469
0.179946
0.190003
0.19691
0.201589
0.20466
0.206516
0.20739
0.207388
0.20651
0.204649
0.201573
0.19689
0.189981
0.179921
0.165441
0.145051
0.117662
0.0850621
0.0574387
0.0375129
0.0319925
0.0231857
0.0249772
0.0333691
0.0408768
0.0634518
0.0950759
0.129632
0.157009
0.176941
0.190857
0.200332
0.206664
0.210815
0.213447
0.214992
0.215704
0.215702
0.214985
0.213436
0.210799
0.206645
0.200309
0.190832
0.176914
0.15698
0.129603
0.0950492
0.0634328
0.0408731
0.0333624
0.0249781
0.0265069
0.0344935
0.0439487
0.0687459
0.103745
0.138943
0.165992
0.185241
0.198431
0.207228
0.212957
0.216598
0.21883
0.220098
0.22067
0.220668
0.220092
0.218819
0.216584
0.21294
0.207207
0.198408
0.185217
0.165966
0.138917
0.103718
0.0687249
0.0439485
0.0344852
0.0265077
0.0277551
0.0354006
0.046501
0.0731009
0.110652
0.146027
0.172587
0.191129
0.203601
0.211748
0.216923
0.220113
0.222003
0.223043
0.2235
0.223498
0.223037
0.221994
0.220101
0.216907
0.21173
0.203581
0.191108
0.172564
0.146002
0.110625
0.0730775
0.0464989
0.0353908
0.0277559
0.028706
0.0360979
0.048434
0.0763719
0.115747
0.151122
0.177209
0.195141
0.207007
0.214614
0.219336
0.222166
0.22379
0.224655
0.225025
0.225023
0.22465
0.223783
0.222156
0.219323
0.214598
0.20699
0.195122
0.177189
0.151099
0.115719
0.0763477
0.0484314
0.0360872
0.0287067
0.0293477
0.0365843
0.0497643
0.0785361
0.119082
0.154412
0.180144
0.197635
0.209069
0.216293
0.220698
0.22328
0.224723
0.22547
0.225782
0.225781
0.225466
0.224717
0.223272
0.220688
0.216281
0.209056
0.19762
0.180127
0.154392
0.119055
0.0785115
0.0497614
0.0365742
0.0293483
0.029672
0.0368745
0.0504475
0.0796249
0.120729
0.156024
0.181568
0.198829
0.21004
0.217066
0.221308
0.223764
0.225116
0.225803
0.226087
0.226086
0.225801
0.225111
0.223759
0.221301
0.217058
0.21003
0.198818
0.181555
0.156006
0.120704
0.0796005
0.050445
0.0368707
0.0296724
0.0296727
0.0368735
0.0504465
0.0796266
0.120727
0.156022
0.181566
0.198827
0.210038
0.217064
0.221306
0.223762
0.225113
0.2258
0.226084
0.226084
0.225799
0.22511
0.223758
0.221301
0.217058
0.210031
0.198819
0.181556
0.156007
0.120705
0.0796031
0.0504439
0.0368706
0.0296729
0.02935
0.0365912
0.049762
0.0785409
0.119075
0.154405
0.180138
0.19763
0.209064
0.216287
0.220691
0.223273
0.224715
0.225461
0.225774
0.225774
0.225461
0.224714
0.223271
0.220688
0.216283
0.209059
0.197624
0.180131
0.154394
0.119056
0.0785188
0.0497586
0.0365811
0.0293497
0.0287099
0.0361097
0.0484299
0.0763787
0.115737
0.151113
0.177202
0.195135
0.207001
0.214606
0.219326
0.222156
0.223779
0.224643
0.225014
0.225014
0.224643
0.223779
0.222155
0.219326
0.214604
0.206998
0.195131
0.177197
0.151104
0.115721
0.0763587
0.0484266
0.0360988
0.0287091
0.0277603
0.0354163
0.0464922
0.0731093
0.11064
0.146018
0.172581
0.191125
0.203596
0.211741
0.216914
0.220103
0.221991
0.223031
0.223488
0.223488
0.223031
0.221992
0.220103
0.216915
0.211741
0.203596
0.191123
0.172579
0.146012
0.110628
0.0730932
0.0464907
0.0354059
0.0277592
0.0265131
0.0345103
0.0439091
0.0687452
0.103731
0.138938
0.165992
0.185242
0.198431
0.207225
0.212952
0.216591
0.218821
0.220088
0.220661
0.220661
0.220089
0.218822
0.216592
0.212954
0.207226
0.198431
0.185242
0.165991
0.138936
0.103725
0.0687362
0.043921
0.0345015
0.0265117
0.0249841
0.0333856
0.040836
0.0634563
0.0950728
0.129638
0.157018
0.17695
0.190864
0.200336
0.206665
0.210814
0.213444
0.214988
0.2157
0.2157
0.214989
0.213446
0.210816
0.206668
0.200337
0.190865
0.176951
0.157017
0.129636
0.0950677
0.0634479
0.0408469
0.0333785
0.0249825
0.023192
0.0320126
0.0374886
0.0574699
0.0851155
0.117715
0.145104
0.165488
0.179962
0.190017
0.196921
0.201598
0.204667
0.206521
0.207394
0.207394
0.206522
0.204669
0.201601
0.196924
0.190019
0.179964
0.16549
0.145105
0.117713
0.0851053
0.0574599
0.0374939
0.0320072
0.0231903
0.0211569
0.0303323
0.0341044
0.0510892
0.0748077
0.103203
0.129608
0.149804
0.164405
0.174785
0.182147
0.187322
0.190835
0.193016
0.194061
0.194061
0.193018
0.190839
0.187327
0.182152
0.174789
0.164409
0.149807
0.129609
0.103202
0.0747994
0.0510802
0.0341091
0.0303288
0.0211551
0.0188833
0.0282586
0.0310283
0.0435827
0.063081
0.0862177
0.109591
0.128565
0.14251
0.152767
0.160367
0.165941
0.16985
0.172331
0.173538
0.173539
0.172334
0.169856
0.16595
0.160377
0.152775
0.142515
0.128568
0.109591
0.0862138
0.0630761
0.0435838
0.0310275
0.0282559
0.0188817
0.0164163
0.0256698
0.0286557
0.0358933
0.0507882
0.0685709
0.0857512
0.100923
0.113057
0.122542
0.129947
0.135614
0.139677
0.142308
0.143617
0.143619
0.142313
0.139686
0.135632
0.129965
0.122556
0.113067
0.100928
0.0857503
0.0685682
0.0507841
0.0358947
0.0286549
0.0256654
0.0164148
0.0138013
0.0222495
0.0264292
0.0295336
0.0387109
0.0506923
0.0619573
0.0717433
0.079875
0.0867595
0.0924758
0.0971068
0.1006
0.103045
0.104317
0.104319
0.103052
0.10061
0.0971182
0.092486
0.0867631
0.0798775
0.0717441
0.0619551
0.0506898
0.0387148
0.0295336
0.0264285
0.0222466
0.0137999
0.0110782
0.0183122
0.0233345
0.0248668
0.0286759
0.0349774
0.0415753
0.0477368
0.0532541
0.0579645
0.0618502
0.0650147
0.0674265
0.0690592
0.0698848
0.0698852
0.0690601
0.0674268
0.0650143
0.061849
0.0579636
0.0532578
0.04774
0.0415794
0.0349812
0.0286753
0.0248661
0.0233329
0.0183103
0.0110772
0.00830951
0.0131782
0.0173085
0.0210789
0.0240975
0.0271984
0.030187
0.0330427
0.0357608
0.0382555
0.0404259
0.0422156
0.0435886
0.0445237
0.045001
0.045003
0.0445293
0.0435952
0.0422234
0.0404339
0.0382657
0.0357702
0.0330471
0.0301889
0.0272004
0.0240984
0.0210794
0.0173088
0.0131793
0.00830903
0.00489726
0.00256018
0.0107591
0.0160479
0.0211147
0.0255961
0.0294028
0.0323662
0.0346407
0.0363628
0.0376629
0.0386371
0.0393384
0.0397947
0.0400197
0.0400191
0.0397929
0.0393356
0.0386338
0.0376593
0.0363591
0.0346374
0.0323629
0.0293995
0.0255915
0.0211113
0.0160462
0.010758
0.00256011
0.00489714
0.00337655
0.00574037
0.00825486
0.0105705
0.0128941
0.0150893
0.0171056
0.0188439
0.0203678
0.0216868
0.0227872
0.0236687
0.0243326
0.0247766
0.024999
0.0249988
0.0247759
0.0243313
0.023667
0.0227852
0.0216844
0.0203653
0.0188414
0.0171031
0.0150869
0.0128921
0.0105689
0.00825371
0.00573968
0.0033763
0.00332236
0.00563946
0.00812631
0.0104424
0.0127588
0.0149491
0.0169642
0.0186956
0.0202042
0.0215063
0.0225969
0.0234726
0.0241315
0.0245718
0.0247923
0.0247925
0.0245722
0.0241322
0.0234736
0.022598
0.0215074
0.0202051
0.0186963
0.0169644
0.0149488
0.0127581
0.0104412
0.00812496
0.00563789
0.00332151
0.00483566
0.0029696
0.0119497
0.0183222
0.0243646
0.0298167
0.0346279
0.0386904
0.0420108
0.0446788
0.0467865
0.0484046
0.0495828
0.050353
0.0507337
0.0507338
0.0503531
0.0495829
0.0484042
0.0467853
0.0446766
0.0420074
0.0386841
0.034617
0.0298045
0.0243535
0.018314
0.0119435
0.00296664
0.00483436
0.00818345
0.014156
0.0196498
0.0253286
0.0301533
0.0346364
0.0387915
0.0423984
0.04523
0.0473825
0.0489854
0.0501577
0.0509861
0.051521
0.0517841
0.0517829
0.0515176
0.0509806
0.0501503
0.048977
0.0473739
0.0452206
0.0423822
0.0387747
0.0346242
0.030147
0.0253263
0.0196482
0.0141491
0.00818153
0.0109355
0.0203877
0.0275035
0.0310773
0.0340198
0.0368142
0.0399904
0.0432926
0.0466379
0.0500712
0.0531667
0.0557536
0.0577665
0.0591459
0.0598482
0.0598505
0.0591526
0.0577774
0.0557681
0.053184
0.0500905
0.0466557
0.0432998
0.0399937
0.0368168
0.0340225
0.0310783
0.027497
0.0203712
0.0109331
0.0136253
0.0255706
0.0325646
0.0354204
0.0373505
0.0425456
0.0504513
0.0581814
0.0649291
0.0708609
0.0759544
0.079964
0.0830077
0.085026
0.0860379
0.0860343
0.0850158
0.0829916
0.0799452
0.07594
0.0708648
0.0649373
0.0581958
0.050454
0.0425409
0.037355
0.0354199
0.032553
0.0255555
0.0136232
0.0162065
0.0302703
0.036331
0.0384056
0.0428811
0.0548558
0.068163
0.0795213
0.0889213
0.0966283
0.10294
0.108029
0.11198
0.114726
0.116116
0.116112
0.114716
0.111963
0.108001
0.10292
0.0966222
0.0889278
0.0795375
0.0681753
0.0548445
0.0428799
0.0384052
0.0363163
0.0302555
0.0162047
0.0186187
0.0343954
0.039249
0.0411826
0.0513842
0.068451
0.085672
0.101666
0.115493
0.126252
0.134418
0.140509
0.144818
0.147635
0.14903
0.14903
0.147633
0.144816
0.140506
0.13442
0.126264
0.115515
0.101697
0.0857039
0.0684728
0.0513902
0.0411834
0.0392357
0.0343863
0.0186174
0.0208316
0.0379205
0.0413106
0.0447186
0.060823
0.0811958
0.102731
0.123272
0.139245
0.150995
0.159548
0.165701
0.169951
0.172637
0.173943
0.173944
0.17264
0.169955
0.165707
0.159558
0.151012
0.139269
0.123308
0.102769
0.0812251
0.0608312
0.0447254
0.0413035
0.0379149
0.0208308
0.0228205
0.0409043
0.0429418
0.0495024
0.0697496
0.0928348
0.118525
0.140627
0.157226
0.169219
0.177746
0.183714
0.187741
0.19023
0.191421
0.191422
0.190234
0.187747
0.183722
0.177757
0.169235
0.157246
0.140655
0.118561
0.0928645
0.0697641
0.0495086
0.0429348
0.0409008
0.0228199
0.0245641
0.0433618
0.0443437
0.0543416
0.077229
0.103372
0.131617
0.153931
0.170427
0.182197
0.190439
0.196095
0.199836
0.202107
0.203179
0.203181
0.20211
0.199842
0.196103
0.190448
0.182209
0.170444
0.153953
0.131645
0.103395
0.0772414
0.054343
0.0443367
0.0433606
0.0245638
0.0260452
0.0453377
0.0455808
0.0588269
0.0836674
0.112831
0.141679
0.163865
0.179957
0.191298
0.199135
0.204426
0.207864
0.209917
0.210875
0.210876
0.20992
0.207868
0.204432
0.199142
0.191307
0.179969
0.163881
0.141697
0.112847
0.0836775
0.0588217
0.0455746
0.0453391
0.0260452
0.0272486
0.0468694
0.0466727
0.0624369
0.0888407
0.120362
0.149277
0.171093
0.186691
0.197558
0.20497
0.209901
0.213053
0.214906
0.215761
0.215762
0.214908
0.213055
0.209904
0.204974
0.197563
0.186698
0.171101
0.149287
0.120373
0.0888509
0.0624315
0.0466707
0.0468737
0.0272489
0.0281621
0.0479904
0.0475955
0.0652553
0.0927189
0.125886
0.154703
0.176118
0.191261
0.201703
0.208744
0.213365
0.216275
0.217964
0.218735
0.218735
0.217964
0.216276
0.213365
0.208744
0.201704
0.191262
0.17612
0.154707
0.125893
0.0927297
0.0652499
0.0475933
0.0479963
0.0281628
0.0287762