/*--------------------------------*- C++ -*----------------------------------*\
| =========                 |                                                 |
| \\      /  F ield         | OpenFOAM: The Open Source CFD Toolbox           |
|  \\    /   O peration     | Version:  2312                                  |
|   \\  /    A nd           | Website:  www.openfoam.com                      |
|    \\/     M anipulation  |                                                 |
\*---------------------------------------------------------------------------*/
FoamFile
{
    version     2.0;
    format      ascii;
    arch        "LSB;label=32;scalar=64";
    class       volScalarField;
    location    "400";
    object      epsilon;
}
// * * * * * * * * * * * * * * * * * * * * * * * * * * * * * * * * * * * * * //

dimensions      [0 2 -3 0 0 0 0];

internalField   nonuniform List<scalar> 
27000
(
0.00152976
0.000225098
0.000110951
7.00723e-05
5.19681e-05
4.16749e-05
3.49703e-05
3.03323e-05
2.69999e-05
2.45597e-05
2.27467e-05
2.14169e-05
2.04881e-05
1.98998e-05
1.96146e-05
1.96149e-05
1.99007e-05
2.04897e-05
2.14191e-05
2.27494e-05
2.45624e-05
2.7003e-05
3.03357e-05
3.49742e-05
4.16791e-05
5.19726e-05
7.00777e-05
0.000110958
0.000225113
0.00152983
0.000151134
3.26442e-05
1.3958e-05
9.32847e-06
7.1952e-06
5.96209e-06
5.12366e-06
4.51097e-06
4.05208e-06
3.70853e-06
3.45139e-06
3.26162e-06
3.12809e-06
3.04312e-06
3.00183e-06
3.00188e-06
3.04327e-06
3.12834e-06
3.26197e-06
3.45182e-06
3.70901e-06
4.05268e-06
4.5117e-06
5.12447e-06
5.96292e-06
7.19598e-06
9.32905e-06
1.39585e-05
3.26435e-05
0.000151136
0.000100299
1.54314e-05
5.15575e-06
2.55945e-06
1.90932e-06
1.62488e-06
1.44661e-06
1.31782e-06
1.21985e-06
1.14477e-06
1.08755e-06
1.04478e-06
1.01428e-06
9.94669e-07
9.8508e-07
9.8508e-07
9.94672e-07
1.01428e-06
1.04479e-06
1.08758e-06
1.14481e-06
1.21994e-06
1.31795e-06
1.4468e-06
1.62512e-06
1.90959e-06
2.55973e-06
5.15613e-06
1.5432e-05
0.000100305
6.66866e-05
1.03408e-05
2.84999e-06
1.38547e-06
9.88548e-07
8.48993e-07
7.78186e-07
7.31525e-07
6.9705e-07
6.70838e-07
6.5066e-07
6.35391e-07
6.24401e-07
6.17279e-07
6.13776e-07
6.13771e-07
6.17266e-07
6.24382e-07
6.35369e-07
6.50643e-07
6.70835e-07
6.97072e-07
7.31578e-07
7.78278e-07
8.49121e-07
9.88716e-07
1.3857e-06
2.85042e-06
1.03417e-05
6.66925e-05
4.92056e-05
7.28922e-06
2.05428e-06
1.03767e-06
7.4473e-07
6.36966e-07
5.88948e-07
5.62124e-07
5.44261e-07
5.32519e-07
5.23782e-07
5.17048e-07
5.12161e-07
5.08969e-07
5.07389e-07
5.07384e-07
5.08956e-07
5.12143e-07
5.17028e-07
5.23767e-07
5.32518e-07
5.44275e-07
5.62159e-07
5.89013e-07
6.3706e-07
7.44863e-07
1.03788e-06
2.05469e-06
7.29039e-06
4.92116e-05
3.86073e-05
5.63002e-06
1.6364e-06
8.7651e-07
6.47521e-07
5.5865e-07
5.19628e-07
5.00115e-07
4.88938e-07
4.82019e-07
4.77373e-07
4.74053e-07
4.71707e-07
4.70189e-07
4.69439e-07
4.69436e-07
4.70179e-07
4.71693e-07
4.7404e-07
4.77365e-07
4.82021e-07
4.88954e-07
5.00148e-07
5.1968e-07
5.58717e-07
6.47623e-07
8.76673e-07
1.63677e-06
5.63125e-06
3.86133e-05
3.16105e-05
4.60547e-06
1.39312e-06
7.81974e-07
5.95606e-07
5.22289e-07
4.89626e-07
4.74054e-07
4.66053e-07
4.61618e-07
4.58957e-07
4.57238e-07
4.56095e-07
4.55379e-07
4.55029e-07
4.55027e-07
4.55372e-07
4.56086e-07
4.5723e-07
4.58954e-07
4.61622e-07
4.66067e-07
4.7408e-07
4.89664e-07
5.22339e-07
5.95677e-07
7.82093e-07
1.39342e-06
4.60665e-06
3.16165e-05
2.67301e-05
3.91426e-06
1.23281e-06
7.19941e-07
5.62236e-07
5.01633e-07
4.74697e-07
4.62183e-07
4.56186e-07
4.53192e-07
4.51606e-07
4.50699e-07
4.50151e-07
4.49825e-07
4.4967e-07
4.49669e-07
4.49821e-07
4.50145e-07
4.50694e-07
4.51604e-07
4.53195e-07
4.56196e-07
4.62199e-07
4.74718e-07
5.01661e-07
5.62277e-07
7.20024e-07
1.23307e-06
3.91549e-06
2.67371e-05
2.31758e-05
3.41883e-06
1.11733e-06
6.75824e-07
5.39269e-07
4.88472e-07
4.66309e-07
4.56322e-07
4.51794e-07
4.49727e-07
4.48759e-07
4.48279e-07
4.48023e-07
4.47883e-07
4.47819e-07
4.47818e-07
4.4788e-07
4.48019e-07
4.48275e-07
4.48756e-07
4.49727e-07
4.51796e-07
4.56327e-07
4.66315e-07
4.88481e-07
5.3929e-07
6.75881e-07
1.11755e-06
3.42e-06
2.31823e-05
2.05848e-05
3.05721e-06
1.03136e-06
6.43427e-07
5.25176e-07
4.80126e-07
4.61303e-07
4.53208e-07
4.49751e-07
4.48302e-07
4.47703e-07
4.47449e-07
4.47334e-07
4.47279e-07
4.47254e-07
4.47254e-07
4.47276e-07
4.4733e-07
4.47445e-07
4.47698e-07
4.48298e-07
4.49746e-07
4.53202e-07
4.61296e-07
4.8012e-07
5.25178e-07
6.43467e-07
1.03156e-06
3.05829e-06
2.05907e-05
1.86934e-05
2.79294e-06
9.67164e-07
6.18697e-07
5.13679e-07
4.74162e-07
4.58054e-07
4.51408e-07
4.48731e-07
4.47699e-07
4.47322e-07
4.47189e-07
4.47141e-07
4.47122e-07
4.47114e-07
4.47113e-07
4.4712e-07
4.47137e-07
4.47184e-07
4.47316e-07
4.47692e-07
4.48721e-07
4.51396e-07
4.5804e-07
4.74147e-07
5.13672e-07
6.18728e-07
9.67339e-07
2.79391e-06
1.86987e-05
1.73309e-05
2.60235e-06
9.20157e-07
6.00345e-07
5.04979e-07
4.69779e-07
4.55822e-07
4.50284e-07
4.48172e-07
4.47422e-07
4.47181e-07
4.47113e-07
4.47097e-07
4.47094e-07
4.47093e-07
4.47092e-07
4.47092e-07
4.47094e-07
4.47108e-07
4.47174e-07
4.47413e-07
4.4816e-07
4.50268e-07
4.55803e-07
4.6976e-07
5.04969e-07
6.00371e-07
9.20315e-07
2.60322e-06
1.73355e-05
1.63871e-05
2.4702e-06
8.87198e-07
5.87283e-07
4.98788e-07
4.66697e-07
4.54304e-07
4.49563e-07
4.47846e-07
4.47281e-07
4.47123e-07
4.47092e-07
4.47091e-07
4.47094e-07
4.47096e-07
4.47095e-07
4.47092e-07
4.47087e-07
4.47086e-07
4.47116e-07
4.47271e-07
4.47833e-07
4.49547e-07
4.54285e-07
4.66679e-07
4.9878e-07
5.87312e-07
8.87342e-07
2.47097e-06
1.63911e-05
1.57921e-05
2.3868e-06
8.66232e-07
5.78826e-07
4.94814e-07
4.64739e-07
4.53359e-07
4.49128e-07
4.47659e-07
4.47207e-07
4.47097e-07
4.47085e-07
4.47092e-07
4.47098e-07
4.47101e-07
4.471e-07
4.47096e-07
4.47089e-07
4.4708e-07
4.4709e-07
4.47198e-07
4.47646e-07
4.49113e-07
4.53342e-07
4.64724e-07
4.94808e-07
5.78854e-07
8.66363e-07
2.38748e-06
1.57956e-05
1.55042e-05
2.34643e-06
8.56047e-07
5.74698e-07
4.92879e-07
4.63793e-07
4.52907e-07
4.48924e-07
4.47573e-07
4.47175e-07
4.47087e-07
4.47083e-07
4.47093e-07
4.47101e-07
4.47105e-07
4.47104e-07
4.471e-07
4.47091e-07
4.47079e-07
4.47081e-07
4.47167e-07
4.47564e-07
4.48912e-07
4.52894e-07
4.63781e-07
4.92876e-07
5.74726e-07
8.56167e-07
2.34702e-06
1.55071e-05
1.55037e-05
2.34638e-06
8.56053e-07
5.74704e-07
4.92886e-07
4.638e-07
4.52912e-07
4.48928e-07
4.47576e-07
4.47177e-07
4.47088e-07
4.47085e-07
4.47095e-07
4.47103e-07
4.47107e-07
4.47107e-07
4.47102e-07
4.47094e-07
4.47082e-07
4.47085e-07
4.47172e-07
4.47569e-07
4.4892e-07
4.52903e-07
4.63792e-07
4.92887e-07
5.74731e-07
8.56159e-07
2.34689e-06
1.55061e-05
1.57907e-05
2.38667e-06
8.6625e-07
5.78843e-07
4.94836e-07
4.64759e-07
4.53373e-07
4.49139e-07
4.47666e-07
4.47213e-07
4.47102e-07
4.4709e-07
4.47098e-07
4.47105e-07
4.47108e-07
4.47108e-07
4.47105e-07
4.47097e-07
4.47089e-07
4.47101e-07
4.47211e-07
4.47663e-07
4.49135e-07
4.53368e-07
4.64755e-07
4.9484e-07
5.7887e-07
8.66342e-07
2.3871e-06
1.57926e-05
1.63847e-05
2.46997e-06
8.8723e-07
5.87316e-07
4.98826e-07
4.66729e-07
4.54328e-07
4.4958e-07
4.47858e-07
4.47291e-07
4.47132e-07
4.47101e-07
4.47102e-07
4.47106e-07
4.47109e-07
4.47109e-07
4.47107e-07
4.47102e-07
4.47102e-07
4.47133e-07
4.47292e-07
4.47858e-07
4.4958e-07
4.54327e-07
4.66729e-07
4.98832e-07
5.8734e-07
8.87307e-07
2.47033e-06
1.63862e-05
1.73275e-05
2.60204e-06
9.20208e-07
6.00407e-07
5.05034e-07
4.69821e-07
4.55852e-07
4.50305e-07
4.48189e-07
4.47436e-07
4.47195e-07
4.47129e-07
4.47115e-07
4.47113e-07
4.47114e-07
4.47114e-07
4.47114e-07
4.47116e-07
4.47131e-07
4.47197e-07
4.47439e-07
4.48192e-07
4.50309e-07
4.55856e-07
4.69825e-07
5.05041e-07
6.00428e-07
9.2027e-07
2.60231e-06
1.73285e-05
1.8689e-05
2.79254e-06
9.67237e-07
6.18781e-07
5.13746e-07
4.74211e-07
4.58088e-07
4.51432e-07
4.4875e-07
4.47717e-07
4.47341e-07
4.47212e-07
4.47168e-07
4.47152e-07
4.47147e-07
4.47147e-07
4.47153e-07
4.47169e-07
4.47214e-07
4.47345e-07
4.47722e-07
4.48756e-07
4.51439e-07
4.58095e-07
4.74218e-07
5.13755e-07
6.18797e-07
9.67279e-07
2.79273e-06
1.86897e-05
2.05793e-05
3.05671e-06
1.03146e-06
6.43524e-07
5.25245e-07
4.80172e-07
4.61335e-07
4.53231e-07
4.49772e-07
4.48326e-07
4.4773e-07
4.47483e-07
4.47374e-07
4.47323e-07
4.47302e-07
4.47302e-07
4.47323e-07
4.47374e-07
4.47484e-07
4.47733e-07
4.4833e-07
4.49778e-07
4.5324e-07
4.61344e-07
4.80182e-07
5.25255e-07
6.43536e-07
1.03148e-06
3.05683e-06
2.05796e-05
2.31694e-05
3.41824e-06
1.11743e-06
6.75922e-07
5.39318e-07
4.88507e-07
4.66333e-07
4.56342e-07
4.51816e-07
4.49756e-07
4.48798e-07
4.48327e-07
4.4808e-07
4.47947e-07
4.47887e-07
4.47887e-07
4.47946e-07
4.48078e-07
4.48326e-07
4.48798e-07
4.49759e-07
4.51822e-07
4.56351e-07
4.66344e-07
4.88518e-07
5.39329e-07
6.75927e-07
1.11743e-06
3.41825e-06
2.31693e-05
2.67229e-05
3.91364e-06
1.23293e-06
7.20031e-07
5.62266e-07
5.0165e-07
4.74708e-07
4.62198e-07
4.56211e-07
4.5323e-07
4.51658e-07
4.50766e-07
4.50229e-07
4.49913e-07
4.49763e-07
4.49762e-07
4.49909e-07
4.50223e-07
4.50759e-07
4.51652e-07
4.53227e-07
4.56211e-07
4.62203e-07
4.74717e-07
5.01661e-07
5.62274e-07
7.20023e-07
1.23289e-06
3.91351e-06
2.67223e-05
3.16036e-05
4.60486e-06
1.39323e-06
7.82029e-07
5.95613e-07
5.22279e-07
4.8962e-07
4.74061e-07
4.66079e-07
4.61666e-07
4.59026e-07
4.57325e-07
4.56198e-07
4.55493e-07
4.5515e-07
4.55147e-07
4.55485e-07
4.56185e-07
4.57309e-07
4.5901e-07
4.61652e-07
4.6607e-07
4.74057e-07
4.89621e-07
5.22284e-07
5.95612e-07
7.82002e-07
1.39313e-06
4.60455e-06
3.16025e-05
3.86e-05
5.62931e-06
1.63642e-06
8.76496e-07
6.47478e-07
5.58601e-07
5.19602e-07
5.00114e-07
4.88963e-07
4.82072e-07
4.77456e-07
4.7416e-07
4.71831e-07
4.70327e-07
4.69584e-07
4.69579e-07
4.70313e-07
4.71809e-07
4.74131e-07
4.77426e-07
4.82044e-07
4.88936e-07
5.0009e-07
5.19584e-07
5.5859e-07
6.47459e-07
8.76438e-07
1.63622e-06
5.62872e-06
3.85983e-05
4.9198e-05
7.28847e-06
2.05417e-06
1.03758e-06
7.44628e-07
6.36886e-07
5.889e-07
5.62097e-07
5.44264e-07
5.32554e-07
5.23868e-07
5.17159e-07
5.1229e-07
5.09112e-07
5.07539e-07
5.07532e-07
5.09091e-07
5.12255e-07
5.17114e-07
5.23817e-07
5.32512e-07
5.44214e-07
5.62045e-07
5.88846e-07
6.36837e-07
7.4457e-07
1.03746e-06
2.05384e-06
7.28745e-06
4.91955e-05
6.66794e-05
1.03403e-05
2.84972e-06
1.38525e-06
9.8837e-07
8.48865e-07
7.78109e-07
7.31489e-07
6.97053e-07
6.70877e-07
6.50717e-07
6.35455e-07
6.24473e-07
6.17358e-07
6.13856e-07
6.13846e-07
6.17328e-07
6.24424e-07
6.35387e-07
6.50631e-07
6.70776e-07
6.96938e-07
7.31362e-07
7.77978e-07
8.48738e-07
9.88232e-07
1.38503e-06
2.84923e-06
1.03392e-05
6.66753e-05
0.000100295
1.54312e-05
5.15514e-06
2.55893e-06
1.90888e-06
1.62452e-06
1.4463e-06
1.31755e-06
1.21962e-06
1.14456e-06
1.0873e-06
1.04449e-06
1.01399e-06
9.94392e-07
9.84795e-07
9.84782e-07
9.94354e-07
1.01393e-06
1.0444e-06
1.08718e-06
1.14439e-06
1.21942e-06
1.3173e-06
1.44601e-06
1.62422e-06
1.90855e-06
2.55846e-06
5.15433e-06
1.54306e-05
0.000100292
0.000151127
3.26436e-05
1.39577e-05
9.32674e-06
7.19289e-06
5.95968e-06
5.12124e-06
4.50855e-06
4.04966e-06
3.70611e-06
3.44867e-06
3.25874e-06
3.12514e-06
3.04014e-06
2.99882e-06
2.99882e-06
3.04015e-06
3.12516e-06
3.25875e-06
3.44866e-06
3.70604e-06
4.04953e-06
4.50833e-06
5.12089e-06
5.95929e-06
7.19248e-06
9.32576e-06
1.39564e-05
3.26411e-05
0.000151102
0.00152965
0.000225073
0.000110931
7.00548e-05
5.19517e-05
4.16595e-05
3.49555e-05
3.03179e-05
2.69857e-05
2.45452e-05
2.27295e-05
2.13993e-05
2.04705e-05
1.98821e-05
1.95968e-05
1.95969e-05
1.98826e-05
2.04713e-05
2.14003e-05
2.27308e-05
2.45466e-05
2.69872e-05
3.03197e-05
3.49576e-05
4.16618e-05
5.19544e-05
7.00581e-05
0.000110935
0.000225082
0.00152958
0.00111559
0.000167882
8.86763e-05
5.87249e-05
4.5595e-05
3.79048e-05
3.27764e-05
2.91226e-05
2.6422e-05
2.44198e-05
2.29708e-05
2.19363e-05
2.12121e-05
2.07504e-05
2.05255e-05
2.05252e-05
2.07498e-05
2.12109e-05
2.19348e-05
2.29691e-05
2.44188e-05
2.6421e-05
2.91216e-05
3.27749e-05
3.79033e-05
4.55938e-05
5.87236e-05
8.86745e-05
0.000167876
0.00111558
0.000106301
3.04997e-05
2.02005e-05
1.42394e-05
1.14373e-05
9.61545e-06
8.27548e-06
7.28267e-06
6.51905e-06
5.93585e-06
5.50341e-06
5.19329e-06
4.9796e-06
4.84522e-06
4.78028e-06
4.78027e-06
4.84519e-06
4.97955e-06
5.19322e-06
5.50337e-06
5.93586e-06
6.51899e-06
7.28256e-06
8.27542e-06
9.61555e-06
1.14374e-05
1.42396e-05
2.02012e-05
3.0501e-05
0.0001063
8.35079e-05
2.20183e-05
1.13029e-05
5.8313e-06
3.74799e-06
2.88522e-06
2.4088e-06
2.08655e-06
1.85294e-06
1.68081e-06
1.55579e-06
1.46718e-06
1.407e-06
1.36971e-06
1.35185e-06
1.35187e-06
1.36977e-06
1.40709e-06
1.46728e-06
1.5559e-06
1.68088e-06
1.85291e-06
2.0864e-06
2.40854e-06
2.88488e-06
3.74752e-06
5.83069e-06
1.13013e-05
2.20151e-05
8.34923e-05
5.74751e-05
1.60869e-05
6.5134e-06
2.84893e-06
1.59348e-06
1.16633e-06
9.84393e-07
8.80224e-07
8.08349e-07
7.55539e-07
7.16754e-07
6.88841e-07
6.69614e-07
6.57611e-07
6.51843e-07
6.51854e-07
6.57641e-07
6.69661e-07
6.88896e-07
7.16805e-07
7.55569e-07
8.0834e-07
8.80158e-07
9.84261e-07
1.16611e-06
1.59306e-06
2.84833e-06
6.51233e-06
1.60855e-05
5.74643e-05
4.44903e-05
1.14939e-05
4.10017e-06
1.70846e-06
9.71388e-07
7.13305e-07
6.09021e-07
5.57415e-07
5.24914e-07
5.00774e-07
4.83272e-07
4.70898e-07
4.62424e-07
4.57355e-07
4.54972e-07
4.54978e-07
4.57374e-07
4.62455e-07
4.70932e-07
4.833e-07
5.00781e-07
5.24894e-07
5.57359e-07
6.08929e-07
7.13161e-07
9.71172e-07
1.70802e-06
4.09938e-06
1.14922e-05
4.44805e-05
3.643e-05
8.71634e-06
2.82527e-06
1.21213e-06
7.311e-07
5.55155e-07
4.77348e-07
4.41131e-07
4.21443e-07
4.08771e-07
3.99975e-07
3.93823e-07
3.89644e-07
3.87088e-07
3.85882e-07
3.85886e-07
3.87097e-07
3.89657e-07
3.93836e-07
3.9998e-07
4.08761e-07
4.21413e-07
4.41078e-07
4.77275e-07
5.55063e-07
7.30987e-07
1.21193e-06
2.82452e-06
8.71417e-06
3.64232e-05
3.08796e-05
6.97655e-06
2.12817e-06
9.5655e-07
6.13263e-07
4.80068e-07
4.21738e-07
3.93561e-07
3.78793e-07
3.70257e-07
3.64882e-07
3.61348e-07
3.59035e-07
3.57636e-07
3.56978e-07
3.5698e-07
3.57641e-07
3.59041e-07
3.61353e-07
3.64882e-07
3.70249e-07
3.78776e-07
3.93535e-07
4.21705e-07
4.8003e-07
6.13228e-07
9.5646e-07
2.12764e-06
6.97497e-06
3.08733e-05
2.69681e-05
5.84638e-06
1.72753e-06
8.11802e-07
5.4593e-07
4.40593e-07
3.93864e-07
3.70924e-07
3.59036e-07
3.52555e-07
3.4882e-07
3.46565e-07
3.45183e-07
3.4438e-07
3.44009e-07
3.4401e-07
3.44383e-07
3.45188e-07
3.4657e-07
3.48823e-07
3.52557e-07
3.59036e-07
3.70926e-07
3.93872e-07
4.4061e-07
5.4595e-07
8.118e-07
1.72721e-06
5.84473e-06
2.69596e-05
2.42187e-05
5.08731e-06
1.48382e-06
7.24317e-07
5.03824e-07
4.17081e-07
3.78162e-07
3.59015e-07
3.49196e-07
3.44032e-07
3.41243e-07
3.39692e-07
3.38813e-07
3.38332e-07
3.38118e-07
3.38119e-07
3.38335e-07
3.38819e-07
3.39699e-07
3.41252e-07
3.44044e-07
3.49213e-07
3.59041e-07
3.78201e-07
4.17138e-07
5.03888e-07
7.24372e-07
1.48362e-06
5.08567e-06
2.42106e-05
2.21767e-05
4.55837e-06
1.32647e-06
6.67741e-07
4.74678e-07
4.01635e-07
3.68503e-07
3.52245e-07
3.44014e-07
3.39803e-07
3.37636e-07
3.36508e-07
3.35916e-07
3.35612e-07
3.35484e-07
3.35485e-07
3.35616e-07
3.35922e-07
3.36518e-07
3.3765e-07
3.39824e-07
3.44044e-07
3.52288e-07
3.68565e-07
4.01721e-07
4.74787e-07
6.67827e-07
1.32636e-06
4.55686e-06
2.21693e-05
2.06542e-05
4.18234e-06
1.22045e-06
6.29786e-07
4.56774e-07
3.91557e-07
3.62329e-07
3.4818e-07
3.41146e-07
3.37641e-07
3.35903e-07
3.35044e-07
3.3462e-07
3.34416e-07
3.34333e-07
3.34334e-07
3.3442e-07
3.34628e-07
3.35056e-07
3.35921e-07
3.37667e-07
3.41184e-07
3.48233e-07
3.62404e-07
3.91657e-07
4.56897e-07
6.29883e-07
1.22039e-06
4.18099e-06
2.06475e-05
1.95372e-05
3.9158e-06
1.14766e-06
6.03613e-07
4.44738e-07
3.84864e-07
3.58305e-07
3.45654e-07
3.3949e-07
3.36494e-07
3.35053e-07
3.34368e-07
3.34044e-07
3.33895e-07
3.33836e-07
3.33838e-07
3.33899e-07
3.34053e-07
3.34381e-07
3.35073e-07
3.36522e-07
3.39531e-07
3.4571e-07
3.58383e-07
3.84966e-07
4.4486e-07
6.03708e-07
1.14763e-06
3.9146e-06
1.95311e-05
1.87521e-05
3.73286e-06
1.09857e-06
5.85743e-07
4.36578e-07
3.80403e-07
3.55685e-07
3.4407e-07
3.38512e-07
3.35867e-07
3.34625e-07
3.3405e-07
3.33785e-07
3.33665e-07
3.33619e-07
3.33621e-07
3.3367e-07
3.33793e-07
3.34062e-07
3.34644e-07
3.35894e-07
3.38552e-07
3.44125e-07
3.55759e-07
3.805e-07
4.36693e-07
5.85835e-07
1.09856e-06
3.7318e-06
1.87466e-05
1.82516e-05
3.61808e-06
1.06806e-06
5.7442e-07
4.31424e-07
3.7762e-07
3.54081e-07
3.43128e-07
3.37954e-07
3.35529e-07
3.34409e-07
3.33898e-07
3.33666e-07
3.33562e-07
3.33522e-07
3.33524e-07
3.33566e-07
3.33673e-07
3.33909e-07
3.34426e-07
3.35554e-07
3.3799e-07
3.43178e-07
3.54148e-07
3.77708e-07
4.31528e-07
5.74502e-07
1.06807e-06
3.61714e-06
1.82467e-05
1.80078e-05
3.56257e-06
1.05336e-06
5.68938e-07
4.28913e-07
3.76271e-07
3.53311e-07
3.42683e-07
3.37697e-07
3.35378e-07
3.34316e-07
3.33835e-07
3.33618e-07
3.3352e-07
3.33483e-07
3.33484e-07
3.33523e-07
3.33623e-07
3.33844e-07
3.3433e-07
3.35399e-07
3.37727e-07
3.42726e-07
3.5337e-07
3.76348e-07
4.29005e-07
5.69011e-07
1.05336e-06
3.56174e-06
1.80035e-05
1.8008e-05
3.56244e-06
1.05327e-06
5.68906e-07
4.28893e-07
3.76259e-07
3.53304e-07
3.42679e-07
3.37694e-07
3.35375e-07
3.34314e-07
3.33833e-07
3.33615e-07
3.33518e-07
3.3348e-07
3.33481e-07
3.3352e-07
3.33619e-07
3.3384e-07
3.34324e-07
3.35392e-07
3.37718e-07
3.42714e-07
3.53354e-07
3.76326e-07
4.28975e-07
5.68972e-07
1.05329e-06
3.56174e-06
1.80042e-05
1.82522e-05
3.61766e-06
1.06781e-06
5.74325e-07
4.31364e-07
3.77585e-07
3.54059e-07
3.43115e-07
3.37945e-07
3.35521e-07
3.34402e-07
3.33891e-07
3.33658e-07
3.33553e-07
3.33512e-07
3.33513e-07
3.33554e-07
3.3366e-07
3.33894e-07
3.34409e-07
3.35533e-07
3.37963e-07
3.43143e-07
3.54101e-07
3.77642e-07
4.31437e-07
5.74388e-07
1.06786e-06
3.61713e-06
1.82487e-05
1.8753e-05
3.73214e-06
1.09813e-06
5.85587e-07
4.36481e-07
3.80344e-07
3.55649e-07
3.44047e-07
3.38495e-07
3.35852e-07
3.34611e-07
3.34034e-07
3.33768e-07
3.33647e-07
3.336e-07
3.336e-07
3.33647e-07
3.33768e-07
3.34035e-07
3.34613e-07
3.35858e-07
3.38507e-07
3.44067e-07
3.55682e-07
3.80393e-07
4.36546e-07
5.8565e-07
1.09821e-06
3.73178e-06
1.875e-05
1.95386e-05
3.91478e-06
1.14704e-06
6.03414e-07
4.44605e-07
3.84782e-07
3.58253e-07
3.45617e-07
3.39461e-07
3.36468e-07
3.35027e-07
3.3434e-07
3.34014e-07
3.33863e-07
3.33802e-07
3.33802e-07
3.33861e-07
3.34012e-07
3.34338e-07
3.35026e-07
3.36469e-07
3.39467e-07
3.4563e-07
3.58278e-07
3.84823e-07
4.44667e-07
6.03481e-07
1.14716e-06
3.91459e-06
1.95359e-05
2.0656e-05
4.18098e-06
1.21957e-06
6.29521e-07
4.56602e-07
3.9145e-07
3.62258e-07
3.48127e-07
3.411e-07
3.37596e-07
3.35857e-07
3.34996e-07
3.34569e-07
3.34361e-07
3.34276e-07
3.34275e-07
3.34359e-07
3.34566e-07
3.34992e-07
3.35853e-07
3.37593e-07
3.411e-07
3.48132e-07
3.62274e-07
3.91483e-07
4.5666e-07
6.29598e-07
1.21977e-06
4.18101e-06
2.06536e-05
2.21789e-05
4.55673e-06
1.32537e-06
6.67405e-07
4.74468e-07
4.01504e-07
3.68411e-07
3.52169e-07
3.43943e-07
3.39731e-07
3.3756e-07
3.36428e-07
3.35831e-07
3.35524e-07
3.35392e-07
3.35391e-07
3.35522e-07
3.35828e-07
3.36423e-07
3.37554e-07
3.39725e-07
3.43937e-07
3.52168e-07
3.68419e-07
4.01529e-07
4.74522e-07
6.67492e-07
1.32564e-06
4.55696e-06
2.21769e-05
2.42211e-05
5.08536e-06
1.48261e-06
7.23912e-07
5.03612e-07
4.16931e-07
3.78044e-07
3.58908e-07
3.49088e-07
3.4392e-07
3.41124e-07
3.39565e-07
3.3868e-07
3.38192e-07
3.37973e-07
3.37973e-07
3.38191e-07
3.38678e-07
3.39562e-07
3.41119e-07
3.43912e-07
3.4908e-07
3.58901e-07
3.78043e-07
4.16946e-07
5.03652e-07
7.24011e-07
1.48286e-06
5.08586e-06
2.42196e-05
2.69705e-05
5.8439e-06
1.72588e-06
8.11298e-07
5.45694e-07
4.4042e-07
3.93714e-07
3.70772e-07
3.58875e-07
3.52383e-07
3.48637e-07
3.46371e-07
3.44978e-07
3.44164e-07
3.43787e-07
3.43788e-07
3.44166e-07
3.44981e-07
3.46374e-07
3.48638e-07
3.52381e-07
3.58869e-07
3.70764e-07
3.93708e-07
4.40428e-07
5.45734e-07
8.11442e-07
1.72642e-06
5.84485e-06
2.69696e-05
3.08795e-05
6.97331e-06
2.12605e-06
9.55971e-07
6.13021e-07
4.79897e-07
4.2155e-07
3.93346e-07
3.78556e-07
3.70002e-07
3.6461e-07
3.61059e-07
3.58729e-07
3.57312e-07
3.56644e-07
3.56647e-07
3.57321e-07
3.58742e-07
3.61075e-07
3.64626e-07
3.70014e-07
3.78563e-07
3.93345e-07
4.21545e-07
4.79899e-07
6.13065e-07
9.56174e-07
2.12697e-06
6.97495e-06
3.08792e-05
3.64284e-05
8.71147e-06
2.82268e-06
1.21141e-06
7.30798e-07
5.54946e-07
4.7712e-07
4.40825e-07
4.21107e-07
4.0841e-07
3.99586e-07
3.93411e-07
3.89206e-07
3.86613e-07
3.85391e-07
3.85397e-07
3.86633e-07
3.89236e-07
3.93451e-07
3.9963e-07
4.08451e-07
4.21144e-07
4.40852e-07
4.77134e-07
5.54959e-07
7.30867e-07
1.21173e-06
2.82417e-06
8.71478e-06
3.64295e-05
4.44862e-05
1.14889e-05
4.09715e-06
1.70713e-06
9.70919e-07
7.12954e-07
6.0867e-07
5.57027e-07
5.245e-07
5.0032e-07
4.8276e-07
4.7036e-07
4.6185e-07
4.56684e-07
4.54274e-07
4.54287e-07
4.56722e-07
4.6191e-07
4.7044e-07
4.82853e-07
5.00406e-07
5.24594e-07
5.57118e-07
6.08741e-07
7.13018e-07
9.71059e-07
1.7078e-06
4.09924e-06
1.14933e-05
4.44904e-05
5.74685e-05
1.6082e-05
6.50985e-06
2.8469e-06
1.59234e-06
1.16556e-06
9.83655e-07
8.79483e-07
8.07594e-07
7.54737e-07
7.1597e-07
6.88074e-07
6.68824e-07
6.56785e-07
6.51015e-07
6.51036e-07
6.56845e-07
6.68918e-07
6.88207e-07
7.16145e-07
7.54956e-07
8.07844e-07
8.79765e-07
9.83955e-07
1.16586e-06
1.5927e-06
2.84799e-06
6.51264e-06
1.6087e-05
5.74767e-05
8.35004e-05
2.20154e-05
1.12993e-05
5.82847e-06
3.74562e-06
2.88304e-06
2.40673e-06
2.0845e-06
1.8509e-06
1.67885e-06
1.55442e-06
1.46586e-06
1.40537e-06
1.36783e-06
1.34998e-06
1.35004e-06
1.368e-06
1.40558e-06
1.46616e-06
1.55482e-06
1.67954e-06
1.85178e-06
2.08558e-06
2.40803e-06
2.8845e-06
3.74712e-06
5.83013e-06
1.13021e-05
2.20212e-05
8.35088e-05
0.000106289
3.04904e-05
2.01939e-05
1.42344e-05
1.14345e-05
9.61376e-06
8.27456e-06
7.28153e-06
6.51758e-06
5.93423e-06
5.50244e-06
5.19274e-06
4.97915e-06
4.84478e-06
4.7799e-06
4.77998e-06
4.845e-06
4.9795e-06
5.19326e-06
5.5032e-06
5.93531e-06
6.51893e-06
7.28322e-06
8.27686e-06
9.6173e-06
1.14387e-05
1.4239e-05
2.01983e-05
3.04999e-05
0.000106307
0.00111563
0.000167895
8.8689e-05
5.87375e-05
4.56075e-05
3.7917e-05
3.27876e-05
2.91306e-05
2.64295e-05
2.44279e-05
2.29845e-05
2.19508e-05
2.12266e-05
2.0765e-05
2.05401e-05
2.05399e-05
2.07646e-05
2.1226e-05
2.195e-05
2.29837e-05
2.44274e-05
2.64291e-05
2.91303e-05
3.27874e-05
3.79176e-05
4.56098e-05
5.87426e-05
8.87014e-05
0.000167932
0.00111584
0.000953576
0.00014106
7.59738e-05
5.11211e-05
4.01563e-05
3.36363e-05
2.92119e-05
2.60854e-05
2.38196e-05
2.21381e-05
2.08698e-05
1.99298e-05
1.92701e-05
1.88507e-05
1.86467e-05
1.86464e-05
1.88499e-05
1.92687e-05
1.99278e-05
2.08672e-05
2.21344e-05
2.38152e-05
2.60806e-05
2.92074e-05
3.36322e-05
4.01531e-05
5.11206e-05
7.5981e-05
0.000141087
0.000953861
9.32376e-05
3.40732e-05
2.22263e-05
1.67364e-05
1.41173e-05
1.25435e-05
1.13447e-05
1.03194e-05
9.43034e-06
8.6826e-06
8.0796e-06
7.61667e-06
7.28402e-06
7.07005e-06
6.96542e-06
6.9652e-06
7.06942e-06
7.28306e-06
7.61549e-06
8.07835e-06
8.68144e-06
9.42949e-06
1.03192e-05
1.13454e-05
1.2545e-05
1.41198e-05
1.674e-05
2.22323e-05
3.40911e-05
9.3285e-05
7.32087e-05
2.24541e-05
1.35132e-05
8.50798e-06
6.05775e-06
4.78007e-06
4.0089e-06
3.46865e-06
3.05801e-06
2.73868e-06
2.49374e-06
2.31272e-06
2.18626e-06
2.1065e-06
2.06802e-06
2.06803e-06
2.10654e-06
2.18637e-06
2.31296e-06
2.49415e-06
2.73934e-06
3.05908e-06
3.4704e-06
4.01096e-06
4.78211e-06
6.05963e-06
8.51012e-06
1.35178e-05
2.24641e-05
7.32375e-05
5.04308e-05
1.79606e-05
9.31223e-06
4.90612e-06
2.79769e-06
1.87394e-06
1.46192e-06
1.23995e-06
1.09753e-06
9.93632e-07
9.15853e-07
8.59144e-07
8.19896e-07
7.95244e-07
7.83397e-07
7.83428e-07
7.95337e-07
8.20058e-07
8.59382e-07
9.16177e-07
9.94047e-07
1.09805e-06
1.2408e-06
1.46272e-06
1.87453e-06
2.79831e-06
4.90748e-06
9.31628e-06
1.7969e-05
5.04502e-05
3.89026e-05
1.38218e-05
6.58409e-06
3.0182e-06
1.50161e-06
9.36335e-07
7.16176e-07
6.15404e-07
5.59973e-07
5.2276e-07
4.95792e-07
4.7632e-07
4.62765e-07
4.53605e-07
4.49085e-07
4.49107e-07
4.5367e-07
4.62862e-07
4.76449e-07
4.95949e-07
5.22935e-07
5.60162e-07
6.15582e-07
7.16252e-07
9.36285e-07
1.50154e-06
3.01912e-06
6.58731e-06
1.38283e-05
3.89145e-05
3.19405e-05
1.12927e-05
4.70259e-06
1.96023e-06
9.69656e-07
6.19226e-07
4.83367e-07
4.2029e-07
3.87548e-07
3.67986e-07
3.54866e-07
3.45731e-07
3.39638e-07
3.35857e-07
3.34031e-07
3.34048e-07
3.35906e-07
3.39711e-07
3.45809e-07
3.5495e-07
3.68066e-07
3.87612e-07
4.20312e-07
4.83314e-07
6.19109e-07
9.69534e-07
1.96071e-06
4.70496e-06
1.1297e-05
3.19466e-05
2.73368e-05
9.46452e-06
3.47762e-06
1.38121e-06
7.17911e-07
4.86294e-07
3.87899e-07
3.43041e-07
3.21337e-07
3.0943e-07
3.02132e-07
2.97354e-07
2.94234e-07
2.92342e-07
2.91448e-07
2.91459e-07
2.92372e-07
2.94276e-07
2.97399e-07
3.02172e-07
3.09454e-07
3.2133e-07
3.42992e-07
3.87815e-07
4.86187e-07
7.17831e-07
1.38153e-06
3.47913e-06
9.46679e-06
2.73408e-05
2.4084e-05
8.07432e-06
2.70617e-06
1.06694e-06
5.8545e-07
4.15054e-07
3.42311e-07
3.09372e-07
2.93103e-07
2.84496e-07
2.79606e-07
2.76658e-07
2.74845e-07
2.73788e-07
2.73302e-07
2.73307e-07
2.73803e-07
2.74864e-07
2.76674e-07
2.79612e-07
2.84482e-07
2.93061e-07
3.09298e-07
3.42209e-07
4.14952e-07
5.85386e-07
1.06698e-06
2.70676e-06
8.07553e-06
2.40885e-05
2.16669e-05
6.99875e-06
2.21235e-06
8.82549e-07
5.09921e-07
3.74035e-07
3.1821e-07
2.92425e-07
2.79558e-07
2.72844e-07
2.69206e-07
2.67165e-07
2.65998e-07
2.65356e-07
2.65071e-07
2.65073e-07
2.65361e-07
2.66002e-07
2.67163e-07
2.69193e-07
2.72813e-07
2.79504e-07
2.92347e-07
3.18115e-07
3.73941e-07
5.09851e-07
8.82503e-07
2.21249e-06
6.99926e-06
2.1671e-05
1.98882e-05
6.18491e-06
1.88541e-06
7.67837e-07
4.60618e-07
3.49096e-07
3.04073e-07
2.83051e-07
2.72527e-07
2.67085e-07
2.64223e-07
2.62699e-07
2.61884e-07
2.61463e-07
2.61283e-07
2.61283e-07
2.61461e-07
2.61879e-07
2.62687e-07
2.642e-07
2.67047e-07
2.72472e-07
2.82978e-07
3.03984e-07
3.48994e-07
4.60505e-07
7.67741e-07
1.88526e-06
6.18482e-06
1.9892e-05
1.8579e-05
5.58426e-06
1.66475e-06
6.94163e-07
4.28301e-07
3.33771e-07
2.9542e-07
2.77563e-07
2.68672e-07
2.64127e-07
2.61789e-07
2.6059e-07
2.59981e-07
2.59682e-07
2.5956e-07
2.59559e-07
2.59678e-07
2.59972e-07
2.60575e-07
2.61764e-07
2.6409e-07
2.68621e-07
2.77496e-07
2.95336e-07
3.33668e-07
4.28179e-07
6.94035e-07
1.66439e-06
5.5837e-06
1.85824e-05
1.76292e-05
5.15453e-06
1.51732e-06
6.45991e-07
4.07216e-07
3.23932e-07
2.8999e-07
2.7425e-07
2.66483e-07
2.62564e-07
2.60586e-07
2.59598e-07
2.59114e-07
2.58885e-07
2.58794e-07
2.58792e-07
2.5888e-07
2.59104e-07
2.59583e-07
2.60563e-07
2.6253e-07
2.66437e-07
2.7419e-07
2.89913e-07
3.23832e-07
4.07091e-07
6.45845e-07
1.51691e-06
5.15366e-06
1.76323e-05
1.69678e-05
4.86142e-06
1.42181e-06
6.15122e-07
3.93664e-07
3.17637e-07
2.86582e-07
2.72237e-07
2.6522e-07
2.61723e-07
2.59985e-07
2.59132e-07
2.58723e-07
2.58534e-07
2.5846e-07
2.58458e-07
2.58529e-07
2.58715e-07
2.59119e-07
2.59965e-07
2.61695e-07
2.65181e-07
2.72184e-07
2.86511e-07
3.1754e-07
3.93537e-07
6.14955e-07
1.42134e-06
4.86033e-06
1.69705e-05
1.655e-05
4.68018e-06
1.36414e-06
5.96836e-07
3.85569e-07
3.13868e-07
2.84563e-07
2.71072e-07
2.64517e-07
2.61279e-07
2.59688e-07
2.58916e-07
2.5855e-07
2.58382e-07
2.58317e-07
2.58316e-07
2.58379e-07
2.58543e-07
2.58906e-07
2.59672e-07
2.61257e-07
2.64485e-07
2.71027e-07
2.84499e-07
3.13776e-07
3.85442e-07
5.96657e-07
1.36362e-06
4.67888e-06
1.65523e-05
1.63494e-05
4.59672e-06
1.33749e-06
5.8832e-07
3.81779e-07
3.12092e-07
2.83614e-07
2.70529e-07
2.64195e-07
2.61083e-07
2.59561e-07
2.58828e-07
2.58481e-07
2.58324e-07
2.58262e-07
2.58262e-07
2.58322e-07
2.58478e-07
2.58822e-07
2.59551e-07
2.61067e-07
2.64171e-07
2.70492e-07
2.83557e-07
3.12007e-07
3.81655e-07
5.88138e-07
1.33698e-06
4.5956e-06
1.63513e-05
1.63504e-05
4.59735e-06
1.3376e-06
5.88325e-07
3.81772e-07
3.12079e-07
2.836e-07
2.70517e-07
2.64185e-07
2.61075e-07
2.59555e-07
2.58823e-07
2.58477e-07
2.58319e-07
2.58259e-07
2.58258e-07
2.58319e-07
2.58476e-07
2.5882e-07
2.59549e-07
2.61065e-07
2.64168e-07
2.70487e-07
2.83551e-07
3.12e-07
3.81652e-07
5.8814e-07
1.33706e-06
4.59609e-06
1.63518e-05
1.65533e-05
4.68272e-06
1.36456e-06
5.96864e-07
3.85551e-07
3.13828e-07
2.84522e-07
2.71036e-07
2.64488e-07
2.61257e-07
2.5967e-07
2.58901e-07
2.58537e-07
2.5837e-07
2.58306e-07
2.58307e-07
2.58372e-07
2.58538e-07
2.58902e-07
2.59669e-07
2.61253e-07
2.64478e-07
2.71015e-07
2.84482e-07
3.13757e-07
3.85435e-07
5.96671e-07
1.36394e-06
4.68083e-06
1.6554e-05
1.69736e-05
4.86584e-06
1.42254e-06
6.1517e-07
3.93636e-07
3.17574e-07
2.86519e-07
2.72184e-07
2.65179e-07
2.61691e-07
2.59959e-07
2.5911e-07
2.58703e-07
2.58516e-07
2.58443e-07
2.58445e-07
2.58519e-07
2.58708e-07
2.59116e-07
2.59964e-07
2.61693e-07
2.65175e-07
2.7217e-07
2.86487e-07
3.17512e-07
3.93525e-07
6.14976e-07
1.42188e-06
4.86365e-06
1.69735e-05
1.76376e-05
5.16083e-06
1.51836e-06
6.4603e-07
4.07175e-07
3.23852e-07
2.89915e-07
2.7419e-07
2.66439e-07
2.62531e-07
2.6056e-07
2.59575e-07
2.59091e-07
2.58863e-07
2.58774e-07
2.58776e-07
2.58869e-07
2.59099e-07
2.59585e-07
2.6057e-07
2.62539e-07
2.66442e-07
2.74184e-07
2.89892e-07
3.23799e-07
4.0707e-07
6.45837e-07
1.51766e-06
5.15833e-06
1.76368e-05
1.85901e-05
5.59243e-06
1.66669e-06
6.94234e-07
4.28259e-07
3.3369e-07
2.95352e-07
2.77517e-07
2.68643e-07
2.64107e-07
2.61772e-07
2.60572e-07
2.59961e-07
2.59662e-07
2.59541e-07
2.59544e-07
2.5967e-07
2.59974e-07
2.60588e-07
2.61788e-07
2.64121e-07
2.68653e-07
2.77518e-07
2.95337e-07
3.33646e-07
4.2816e-07
6.94031e-07
1.66569e-06
5.5896e-06
1.85884e-05
1.99022e-05
6.1944e-06
1.88772e-06
7.67934e-07
4.60596e-07
3.49046e-07
3.04046e-07
2.83046e-07
2.72534e-07
2.67094e-07
2.64227e-07
2.62695e-07
2.61874e-07
2.61449e-07
2.6127e-07
2.61274e-07
2.61462e-07
2.61893e-07
2.62718e-07
2.64251e-07
2.67116e-07
2.7255e-07
2.83053e-07
3.04037e-07
3.49009e-07
4.60502e-07
7.67733e-07
1.8867e-06
6.19143e-06
1.98997e-05
2.16841e-05
7.00906e-06
2.21484e-06
8.82731e-07
5.09927e-07
3.74076e-07
3.1827e-07
2.92499e-07
2.79632e-07
2.72905e-07
2.69248e-07
2.67189e-07
2.6601e-07
2.65361e-07
2.65074e-07
2.65081e-07
2.65379e-07
2.66037e-07