/*--------------------------------*- C++ -*----------------------------------*\
| =========                 |                                                 |
| \\      /  F ield         | OpenFOAM: The Open Source CFD Toolbox           |
|  \\    /   O peration     | Version:  2312                                  |
|   \\  /    A nd           | Website:  www.openfoam.com                      |
|    \\/     M anipulation  |                                                 |
\*---------------------------------------------------------------------------*/
FoamFile
{
    version     2.0;
    format      ascii;
    arch        "LSB;label=32;scalar=64";
    class       volScalarField;
    location    "400";
    object      k;
}
// * * * * * * * * * * * * * * * * * * * * * * * * * * * * * * * * * * * * * //

dimensions      [0 2 -2 0 0 0 0];

internalField   nonuniform List<scalar> 
27000
(
0.000259193
0.000129524
0.000107444
9.56066e-05
9.00658e-05
8.6618e-05
8.3997e-05
8.17088e-05
7.98057e-05
7.82584e-05
7.69757e-05
7.59438e-05
7.51797e-05
7.46768e-05
7.44277e-05
7.44285e-05
7.46791e-05
7.51834e-05
7.59487e-05
7.69815e-05
7.8264e-05
7.98116e-05
8.17147e-05
8.40028e-05
8.66234e-05
9.00707e-05
9.56112e-05
0.000107449
0.000129529
0.0002592
9.82795e-05
2.1552e-05
2.82914e-05
3.06746e-05
3.24395e-05
3.36e-05
3.4334e-05
3.47659e-05
3.49956e-05
3.51283e-05
3.52123e-05
3.52666e-05
3.53016e-05
3.53228e-05
3.53329e-05
3.5333e-05
3.5323e-05
3.53019e-05
3.52671e-05
3.52129e-05
3.5129e-05
3.49966e-05
3.47671e-05
3.43355e-05
3.36016e-05
3.24408e-05
3.06752e-05
2.82917e-05
2.1551e-05
9.82811e-05
0.000101406
3.4992e-05
2.88354e-05
2.72634e-05
2.79655e-05
2.88876e-05
2.96728e-05
3.03251e-05
3.08282e-05
3.12106e-05
3.1502e-05
3.17205e-05
3.18768e-05
3.19775e-05
3.20268e-05
3.20266e-05
3.19768e-05
3.18756e-05
3.1719e-05
3.15004e-05
3.12091e-05
3.08269e-05
3.03243e-05
2.96728e-05
2.88883e-05
2.79668e-05
2.72651e-05
2.88374e-05
3.49936e-05
0.000101411
9.49049e-05
3.52931e-05
2.87162e-05
2.84636e-05
2.93175e-05
3.01479e-05
3.08158e-05
3.13442e-05
3.1756e-05
3.20702e-05
3.23074e-05
3.24837e-05
3.26089e-05
3.26894e-05
3.27287e-05
3.27285e-05
3.26887e-05
3.26077e-05
3.24822e-05
3.23059e-05
3.20689e-05
3.17552e-05
3.1344e-05
3.08164e-05
3.01493e-05
2.93196e-05
2.84659e-05
2.87188e-05
3.52954e-05
9.49108e-05
9.03178e-05
3.42408e-05
2.90046e-05
2.96365e-05
3.06199e-05
3.13823e-05
3.19485e-05
3.23719e-05
3.26898e-05
3.29259e-05
3.31e-05
3.32264e-05
3.33147e-05
3.33708e-05
3.33979e-05
3.33977e-05
3.33701e-05
3.33137e-05
3.32253e-05
3.30989e-05
3.29251e-05
3.26895e-05
3.23723e-05
3.19496e-05
3.13841e-05
3.06221e-05
2.9639e-05
2.90071e-05
3.42437e-05
9.03254e-05
8.65949e-05
3.39398e-05
2.94462e-05
3.04525e-05
3.14884e-05
3.22147e-05
3.27162e-05
3.30668e-05
3.33144e-05
3.34891e-05
3.36118e-05
3.3697e-05
3.37543e-05
3.37896e-05
3.38065e-05
3.38063e-05
3.37891e-05
3.37535e-05
3.36961e-05
3.3611e-05
3.34887e-05
3.33144e-05
3.30674e-05
3.27173e-05
3.22163e-05
3.14902e-05
3.04543e-05
2.94479e-05
3.39429e-05
8.66041e-05
8.342e-05
3.39774e-05
3.01116e-05
3.11232e-05
3.21028e-05
3.27727e-05
3.3217e-05
3.35095e-05
3.37014e-05
3.38265e-05
3.39076e-05
3.39596e-05
3.39922e-05
3.40112e-05
3.40199e-05
3.40197e-05
3.40108e-05
3.39916e-05
3.3959e-05
3.39071e-05
3.38263e-05
3.37015e-05
3.351e-05
3.32178e-05
3.27737e-05
3.21038e-05
3.1124e-05
3.01126e-05
3.39806e-05
8.34307e-05
8.06453e-05
3.4115e-05
3.07725e-05
3.16954e-05
3.25712e-05
3.31626e-05
3.3544e-05
3.37823e-05
3.39266e-05
3.40112e-05
3.40593e-05
3.40857e-05
3.40997e-05
3.41067e-05
3.41095e-05
3.41094e-05
3.41064e-05
3.40993e-05
3.40852e-05
3.40589e-05
3.40109e-05
3.39265e-05
3.37824e-05
3.35443e-05
3.31628e-05
3.25713e-05
3.16953e-05
3.07728e-05
3.41183e-05
8.06595e-05
7.81398e-05
3.4253e-05
3.13166e-05
3.21531e-05
3.29286e-05
3.34405e-05
3.37588e-05
3.39459e-05
3.40488e-05
3.41006e-05
3.41235e-05
3.41314e-05
3.41327e-05
3.41316e-05
3.41306e-05
3.41305e-05
3.41314e-05
3.41323e-05
3.4131e-05
3.41231e-05
3.41002e-05
3.40485e-05
3.39456e-05
3.37584e-05
3.34399e-05
3.29278e-05
3.21522e-05
3.13164e-05
3.42563e-05
7.81546e-05
7.6018e-05
3.43716e-05
3.17461e-05
3.25067e-05
3.31948e-05
3.36374e-05
3.38992e-05
3.40414e-05
3.41097e-05
3.41359e-05
3.41406e-05
3.41362e-05
3.41295e-05
3.41239e-05
3.41207e-05
3.41207e-05
3.41236e-05
3.41291e-05
3.41357e-05
3.414e-05
3.41353e-05
3.41091e-05
3.40407e-05
3.38983e-05
3.36363e-05
3.31935e-05
3.25054e-05
3.17456e-05
3.43749e-05
7.60328e-05
7.42759e-05
3.44682e-05
3.20789e-05
3.27779e-05
3.3394e-05
3.3777e-05
3.39907e-05
3.40958e-05
3.41367e-05
3.4144e-05
3.41363e-05
3.41244e-05
3.41135e-05
3.41056e-05
3.41016e-05
3.41015e-05
3.41054e-05
3.41131e-05
3.41239e-05
3.41357e-05
3.41432e-05
3.41359e-05
3.40947e-05
3.39895e-05
3.37755e-05
3.33924e-05
3.27764e-05
3.20783e-05
3.44714e-05
7.42901e-05
7.28996e-05
3.45425e-05
3.23284e-05
3.298e-05
3.35398e-05
3.38748e-05
3.40501e-05
3.41261e-05
3.41466e-05
3.41407e-05
3.41253e-05
3.41093e-05
3.40966e-05
3.40881e-05
3.40839e-05
3.40839e-05
3.40879e-05
3.40962e-05
3.41088e-05
3.41246e-05
3.41399e-05
3.41456e-05
3.41248e-05
3.40486e-05
3.38732e-05
3.35381e-05
3.29785e-05
3.23279e-05
3.45456e-05
7.2913e-05
7.18781e-05
3.45959e-05
3.25057e-05
3.3123e-05
3.36415e-05
3.39409e-05
3.40877e-05
3.41426e-05
3.41489e-05
3.41345e-05
3.41146e-05
3.40967e-05
3.40835e-05
3.40752e-05
3.40713e-05
3.40712e-05
3.4075e-05
3.40831e-05
3.40962e-05
3.41139e-05
3.41336e-05
3.41479e-05
3.41413e-05
3.40862e-05
3.39393e-05
3.36398e-05
3.31216e-05
3.25053e-05
3.45989e-05
7.18902e-05
7.12022e-05
3.46301e-05
3.26193e-05
3.32144e-05
3.37058e-05
3.39818e-05
3.41099e-05
3.41512e-05
3.41487e-05
3.41292e-05
3.41069e-05
3.40884e-05
3.40753e-05
3.40674e-05
3.40637e-05
3.40637e-05
3.40672e-05
3.4075e-05
3.40879e-05
3.41063e-05
3.41284e-05
3.41477e-05
3.415e-05
3.41086e-05
3.39803e-05
3.37043e-05
3.32132e-05
3.26191e-05
3.46329e-05
7.12128e-05
7.08654e-05
3.46467e-05
3.26748e-05
3.32591e-05
3.37371e-05
3.40014e-05
3.41203e-05
3.4155e-05
3.41483e-05
3.41264e-05
3.41032e-05
3.40845e-05
3.40716e-05
3.4064e-05
3.40605e-05
3.40604e-05
3.40638e-05
3.40713e-05
3.40841e-05
3.41026e-05
3.41257e-05
3.41474e-05
3.4154e-05
3.41192e-05
3.40002e-05
3.37358e-05
3.32582e-05
3.26748e-05
3.46493e-05
7.08745e-05
7.0864e-05
3.46466e-05
3.26752e-05
3.32595e-05
3.37375e-05
3.40018e-05
3.41206e-05
3.41552e-05
3.41485e-05
3.41266e-05
3.41034e-05
3.40847e-05
3.40718e-05
3.40642e-05
3.40607e-05
3.40607e-05
3.40641e-05
3.40717e-05
3.40844e-05
3.4103e-05
3.41261e-05
3.41478e-05
3.41545e-05
3.41197e-05
3.40008e-05
3.37365e-05
3.32588e-05
3.26753e-05
3.46489e-05
7.08716e-05
7.11981e-05
3.46299e-05
3.26203e-05
3.32157e-05
3.3707e-05
3.39828e-05
3.41108e-05
3.41519e-05
3.41493e-05
3.41298e-05
3.41075e-05
3.4089e-05
3.4076e-05
3.40682e-05
3.40645e-05
3.40645e-05
3.40681e-05
3.40759e-05
3.40889e-05
3.41073e-05
3.41295e-05
3.41489e-05
3.41514e-05
3.41102e-05
3.39821e-05
3.37063e-05
3.32152e-05
3.26206e-05
3.46319e-05
7.12041e-05
7.18714e-05
3.45954e-05
3.25073e-05
3.3125e-05
3.36434e-05
3.39425e-05
3.4089e-05
3.41437e-05
3.41499e-05
3.41354e-05
3.41156e-05
3.40978e-05
3.40847e-05
3.40765e-05
3.40727e-05
3.40727e-05
3.40765e-05
3.40847e-05
3.40978e-05
3.41155e-05
3.41354e-05
3.41498e-05
3.41435e-05
3.40888e-05
3.39422e-05
3.3643e-05
3.31248e-05
3.25077e-05
3.45971e-05
7.1876e-05
7.28906e-05
3.45419e-05
3.23306e-05
3.29827e-05
3.35423e-05
3.38769e-05
3.40518e-05
3.41275e-05
3.4148e-05
3.4142e-05
3.41267e-05
3.41109e-05
3.40984e-05
3.40901e-05
3.40861e-05
3.40861e-05
3.40901e-05
3.40984e-05
3.4111e-05
3.41269e-05
3.41422e-05
3.41481e-05
3.41276e-05
3.40518e-05
3.38768e-05
3.35421e-05
3.29826e-05
3.23309e-05
3.45433e-05
7.28939e-05
7.42648e-05
3.44675e-05
3.20816e-05
3.27811e-05
3.3397e-05
3.37794e-05
3.39928e-05
3.40975e-05
3.41384e-05
3.41457e-05
3.41383e-05
3.41267e-05
3.4116e-05
3.41084e-05
3.41046e-05
3.41046e-05
3.41085e-05
3.41161e-05
3.41268e-05
3.41385e-05
3.41459e-05
3.41387e-05
3.40978e-05
3.3993e-05
3.37796e-05
3.3397e-05
3.27812e-05
3.20819e-05
3.44685e-05
7.42669e-05
7.60054e-05
3.43708e-05
3.17493e-05
3.25103e-05
3.3198e-05
3.36401e-05
3.39014e-05
3.40434e-05
3.41117e-05
3.41381e-05
3.41432e-05
3.41392e-05
3.41329e-05
3.41276e-05
3.41247e-05
3.41247e-05
3.41276e-05
3.41329e-05
3.41393e-05
3.41433e-05
3.41384e-05
3.41121e-05
3.40438e-05
3.39017e-05
3.36404e-05
3.31981e-05
3.25104e-05
3.17495e-05
3.43714e-05
7.60064e-05
7.81262e-05
3.42522e-05
3.13201e-05
3.21568e-05
3.29317e-05
3.3443e-05
3.37609e-05
3.3948e-05
3.40511e-05
3.41034e-05
3.41269e-05
3.41354e-05
3.41372e-05
3.41366e-05
3.41358e-05
3.41358e-05
3.41365e-05
3.41371e-05
3.41354e-05
3.41269e-05
3.41036e-05
3.40515e-05
3.39485e-05
3.37614e-05
3.34434e-05
3.2932e-05
3.2157e-05
3.13202e-05
3.42523e-05
7.81262e-05
8.06316e-05
3.41142e-05
3.07758e-05
3.16986e-05
3.25738e-05
3.31647e-05
3.3546e-05
3.37845e-05
3.39293e-05
3.40146e-05
3.40636e-05
3.40908e-05
3.41055e-05
3.4113e-05
3.41161e-05
3.4116e-05
3.41128e-05
3.41053e-05
3.40906e-05
3.40634e-05
3.40146e-05
3.39294e-05
3.37848e-05
3.35465e-05
3.31652e-05
3.25743e-05
3.16988e-05
3.07758e-05
3.41138e-05
8.06307e-05
8.34085e-05
3.39763e-05
3.01139e-05
3.11252e-05
3.21044e-05
3.27742e-05
3.32187e-05
3.35118e-05
3.37046e-05
3.38308e-05
3.3913e-05
3.3966e-05
3.39994e-05
3.40189e-05
3.40279e-05
3.40278e-05
3.40186e-05
3.39989e-05
3.39654e-05
3.39124e-05
3.38304e-05
3.37044e-05
3.35119e-05
3.32191e-05
3.27747e-05
3.21049e-05
3.11255e-05
3.01138e-05
3.39756e-05
8.34068e-05
8.65846e-05
3.39378e-05
2.94461e-05
3.04529e-05
3.14889e-05
3.22155e-05
3.27177e-05
3.30694e-05
3.33182e-05
3.34943e-05
3.36184e-05
3.37048e-05
3.37629e-05
3.37988e-05
3.38159e-05
3.38157e-05
3.37983e-05
3.37621e-05
3.37037e-05
3.36173e-05
3.34934e-05
3.33175e-05
3.30691e-05
3.27178e-05
3.22159e-05
3.14894e-05
3.04533e-05
2.94462e-05
3.39369e-05
8.65822e-05
9.03092e-05
3.42384e-05
2.90029e-05
2.96352e-05
3.06192e-05
3.13825e-05
3.195e-05
3.23748e-05
3.26942e-05
3.2932e-05
3.31077e-05
3.32354e-05
3.33245e-05
3.3381e-05
3.34083e-05
3.3408e-05
3.33802e-05
3.33233e-05
3.32339e-05
3.3106e-05
3.29304e-05
3.26929e-05
3.23738e-05
3.19494e-05
3.13825e-05
3.06195e-05
2.96357e-05
2.90029e-05
3.42368e-05
9.03062e-05
9.48986e-05
3.52909e-05
2.87129e-05
2.84608e-05
2.93158e-05
3.01475e-05
3.08169e-05
3.13469e-05
3.17605e-05
3.20765e-05
3.23154e-05
3.24927e-05
3.26186e-05
3.26993e-05
3.27387e-05
3.27384e-05
3.26984e-05
3.26171e-05
3.24908e-05
3.23132e-05
3.20743e-05
3.17584e-05
3.13451e-05
3.08156e-05
3.01468e-05
2.93155e-05
2.8461e-05
2.87125e-05
3.5289e-05
9.4895e-05
0.000101403
3.49909e-05
2.88311e-05
2.72595e-05
2.79626e-05
2.88859e-05
2.96726e-05
3.03261e-05
3.08306e-05
3.12145e-05
3.15071e-05
3.17262e-05
3.18825e-05
3.19832e-05
3.20324e-05
3.20321e-05
3.19823e-05
3.18811e-05
3.17243e-05
3.15048e-05
3.12121e-05
3.08282e-05
3.03237e-05
2.96704e-05
2.88845e-05
2.79615e-05
2.72585e-05
2.88298e-05
3.49914e-05
0.000101402
9.82786e-05
2.15526e-05
2.82902e-05
3.06708e-05
3.24343e-05
3.35939e-05
3.43272e-05
3.47584e-05
3.49878e-05
3.51203e-05
3.52037e-05
3.52573e-05
3.52918e-05
3.53126e-05
3.53225e-05
3.53224e-05
3.53125e-05
3.52916e-05
3.5257e-05
3.52032e-05
3.51197e-05
3.49871e-05
3.47575e-05
3.4326e-05
3.35927e-05
3.24327e-05
3.06683e-05
2.82863e-05
2.15513e-05
9.82698e-05
0.00025918
0.000129512
0.000107431
9.55906e-05
9.0047e-05
8.65968e-05
8.39735e-05
8.16832e-05
7.97781e-05
7.8228e-05
7.69374e-05
7.59027e-05
7.51371e-05
7.46332e-05
7.43833e-05
7.43837e-05
7.46343e-05
7.51389e-05
7.59051e-05
7.69402e-05
7.82307e-05
7.9781e-05
8.16863e-05
8.39766e-05
8.65997e-05
9.00497e-05
9.5593e-05
0.000107433
0.000129513
0.000259172
0.000209997
0.000106519
9.25334e-05
8.49843e-05
8.25431e-05
8.13122e-05
8.04464e-05
7.9522e-05
7.86633e-05
7.79614e-05
7.74811e-05
7.71673e-05
7.6941e-05
7.67908e-05
7.67154e-05
7.67149e-05
7.67893e-05
7.69386e-05
7.71642e-05
7.74777e-05
7.79596e-05
7.86618e-05
7.95207e-05
8.04446e-05
8.13108e-05
8.25423e-05
8.49834e-05
9.25326e-05
0.000106518
0.000209994
7.77318e-05
2.33376e-05
4.08785e-05
4.17475e-05
4.30728e-05
4.33824e-05
4.31098e-05
4.27772e-05
4.22992e-05
4.17929e-05
4.13452e-05
4.09926e-05
4.07373e-05
4.05722e-05
4.04914e-05
4.04914e-05
4.05724e-05
4.07376e-05
4.09931e-05
4.1346e-05
4.1794e-05
4.23003e-05
4.27787e-05
4.31118e-05
4.3385e-05
4.30758e-05
4.17508e-05
4.08831e-05
2.3339e-05
7.77282e-05
8.97479e-05
4.99058e-05
4.07576e-05
3.28988e-05
3.01754e-05
2.95879e-05
2.94174e-05
2.91785e-05
2.89555e-05
2.87615e-05
2.8605e-05
2.84902e-05
2.84136e-05
2.83673e-05
2.83459e-05
2.83464e-05
2.83687e-05
2.84159e-05
2.84932e-05
2.86083e-05
2.87645e-05
2.89581e-05
2.91805e-05
2.94184e-05
2.95879e-05
3.01747e-05
3.28979e-05
4.07531e-05
4.98986e-05
8.97353e-05
8.59521e-05
4.89394e-05
3.5996e-05
2.85201e-05
2.52522e-05
2.45951e-05
2.47739e-05
2.50782e-05
2.53537e-05
2.56036e-05
2.58192e-05
2.59895e-05
2.6115e-05
2.61972e-05
2.6238e-05
2.62385e-05
2.61986e-05
2.61171e-05
2.5992e-05
2.58215e-05
2.56054e-05
2.53548e-05
2.5078e-05
2.47719e-05
2.45916e-05
2.52482e-05
2.85172e-05
3.59911e-05
4.89361e-05
8.59406e-05
8.44527e-05
4.50362e-05
3.22322e-05
2.61213e-05
2.42671e-05
2.4227e-05
2.46985e-05
2.52108e-05
2.56456e-05
2.60013e-05
2.62857e-05
2.65031e-05
2.66597e-05
2.67603e-05
2.68096e-05
2.681e-05
2.67613e-05
2.6661e-05
2.65046e-05
2.62869e-05
2.60019e-05
2.56454e-05
2.52093e-05
2.46954e-05
2.42227e-05
2.42624e-05
2.61171e-05
3.22301e-05
4.50319e-05
8.444e-05
8.33088e-05
4.18738e-05
2.99736e-05
2.51981e-05
2.44527e-05
2.48678e-05
2.54779e-05
2.6032e-05
2.64836e-05
2.68383e-05
2.71111e-05
2.73153e-05
2.74602e-05
2.75529e-05
2.75981e-05
2.75983e-05
2.75535e-05
2.74611e-05
2.73162e-05
2.71119e-05
2.68386e-05
2.64833e-05
2.60309e-05
2.54758e-05
2.4865e-05
2.44494e-05
2.5195e-05
2.99717e-05
4.18675e-05
8.32984e-05
8.21299e-05
3.99094e-05
2.8343e-05
2.49027e-05
2.49122e-05
2.55751e-05
2.62459e-05
2.68008e-05
2.72334e-05
2.75612e-05
2.7805e-05
2.79819e-05
2.81047e-05
2.8182e-05
2.82194e-05
2.82196e-05
2.81825e-05
2.81054e-05
2.79827e-05
2.78057e-05
2.75617e-05
2.72336e-05
2.68006e-05
2.62454e-05
2.55744e-05
2.49115e-05
2.4902e-05
2.83417e-05
3.99068e-05
8.2119e-05
8.11243e-05
3.86772e-05
2.73787e-05
2.49293e-05
2.53698e-05
2.61678e-05
2.68615e-05
2.74025e-05
2.78069e-05
2.81017e-05
2.83123e-05
2.84593e-05
2.85578e-05
2.86183e-05
2.86471e-05
2.86473e-05
2.86188e-05
2.85586e-05
2.84601e-05
2.83132e-05
2.81027e-05
2.78079e-05
2.74035e-05
2.68626e-05
2.61692e-05
2.53716e-05
2.49312e-05
2.7379e-05
3.86746e-05
8.11075e-05
8.04676e-05
3.78464e-05
2.69096e-05
2.51837e-05
2.58143e-05
2.66501e-05
2.73358e-05
2.78502e-05
2.82207e-05
2.848e-05
2.8657e-05
2.87748e-05
2.88502e-05
2.88948e-05
2.89155e-05
2.89157e-05
2.88953e-05
2.8851e-05
2.87758e-05
2.86583e-05
2.84815e-05
2.82225e-05
2.78523e-05
2.73384e-05
2.66532e-05
2.58181e-05
2.51879e-05
2.6911e-05
3.78435e-05
8.04501e-05
7.98894e-05
3.72656e-05
2.66926e-05
2.54761e-05
2.62052e-05
2.70375e-05
2.7696e-05
2.81753e-05
2.85088e-05
2.87325e-05
2.88777e-05
2.89688e-05
2.90237e-05
2.90544e-05
2.90682e-05
2.90684e-05
2.9055e-05
2.90246e-05
2.89701e-05
2.88793e-05
2.87345e-05
2.85111e-05
2.81782e-05
2.76995e-05
2.70418e-05
2.62103e-05
2.54814e-05
2.66946e-05
3.72626e-05
7.98719e-05
7.93838e-05
3.68564e-05
2.66036e-05
2.57353e-05
2.65183e-05
2.73373e-05
2.79637e-05
2.84063e-05
2.87035e-05
2.88943e-05
2.90112e-05
2.90795e-05
2.91174e-05
2.91368e-05
2.9145e-05
2.91452e-05
2.91374e-05
2.91183e-05
2.90808e-05
2.90129e-05
2.88965e-05
2.87063e-05
2.84097e-05
2.79679e-05
2.73423e-05
2.65241e-05
2.57411e-05
2.66059e-05
3.68534e-05
7.93667e-05
7.8963e-05
3.65721e-05
2.65811e-05
2.59486e-05
2.67593e-05
2.75609e-05
2.8157e-05
2.85662e-05
2.88314e-05
2.89939e-05
2.90874e-05
2.91375e-05
2.91622e-05
2.91732e-05
2.91772e-05
2.91774e-05
2.91737e-05
2.91631e-05
2.91388e-05
2.90892e-05
2.89962e-05
2.88343e-05
2.85697e-05
2.81613e-05
2.75661e-05
2.67652e-05
2.59545e-05
2.65833e-05
3.65691e-05
7.89468e-05
7.86374e-05
3.63817e-05
2.65888e-05
2.61122e-05
2.69353e-05
2.77196e-05
2.82901e-05
2.86722e-05
2.89121e-05
2.90526e-05
2.91283e-05
2.9165e-05
2.91803e-05
2.91854e-05
2.91866e-05
2.91868e-05
2.91859e-05
2.91812e-05
2.91663e-05
2.91301e-05
2.90549e-05
2.89149e-05
2.86757e-05
2.82944e-05
2.77246e-05
2.6941e-05
2.61179e-05
2.65909e-05
3.63789e-05
7.86223e-05
7.84153e-05
3.62656e-05
2.66045e-05
2.6223e-05
2.70507e-05
2.78214e-05
2.83735e-05
2.87366e-05
2.8959e-05
2.90846e-05
2.91486e-05
2.91765e-05
2.91858e-05
2.91872e-05
2.91867e-05
2.91869e-05
2.91877e-05
2.91866e-05
2.91777e-05
2.91502e-05
2.90867e-05
2.89616e-05
2.87399e-05
2.83775e-05
2.78261e-05
2.7056e-05
2.62283e-05
2.66064e-05
3.62629e-05
7.84015e-05
7.83025e-05
3.62119e-05
2.66154e-05
2.62783e-05
2.71075e-05
2.78709e-05
2.84135e-05
2.87669e-05
2.89804e-05
2.90986e-05
2.91567e-05
2.91804e-05
2.91868e-05
2.91864e-05
2.91851e-05
2.91852e-05
2.91868e-05
2.91874e-05
2.91813e-05
2.9158e-05
2.91003e-05
2.89827e-05
2.87698e-05
2.8417e-05
2.78751e-05
2.71123e-05
2.62831e-05
2.6617e-05
3.62095e-05
7.829e-05
7.8303e-05
3.62115e-05
2.66144e-05
2.62772e-05
2.71067e-05
2.78703e-05
2.84131e-05
2.87666e-05
2.89802e-05
2.90983e-05
2.91564e-05
2.91801e-05
2.91865e-05
2.91861e-05
2.91847e-05
2.91848e-05
2.91864e-05
2.9187e-05
2.91808e-05
2.91575e-05
2.90997e-05
2.8982e-05
2.8769e-05
2.84161e-05
2.7874e-05
2.71109e-05
2.62815e-05
2.66159e-05
3.62093e-05
7.82918e-05
7.84166e-05
3.62644e-05
2.66017e-05
2.62197e-05
2.70482e-05
2.78196e-05
2.83723e-05
2.87357e-05
2.89582e-05
2.90839e-05
2.91478e-05
2.91758e-05
2.9185e-05
2.91863e-05
2.91857e-05
2.91857e-05
2.91865e-05
2.91853e-05
2.91762e-05
2.91485e-05
2.90849e-05
2.89596e-05
2.87375e-05
2.83747e-05
2.78227e-05
2.70519e-05
2.62236e-05
2.6603e-05
3.62626e-05
7.84068e-05
7.86395e-05
3.63798e-05
2.65841e-05
2.61068e-05
2.69311e-05
2.77166e-05
2.82879e-05
2.86705e-05
2.89106e-05
2.90512e-05
2.91269e-05
2.91635e-05
2.91787e-05
2.91836e-05
2.91847e-05
2.91847e-05
2.91837e-05
2.91788e-05
2.91637e-05
2.91273e-05
2.90518e-05
2.89115e-05
2.86718e-05
2.82898e-05
2.77191e-05
2.69343e-05
2.61102e-05
2.65853e-05
3.63784e-05
7.8631e-05
7.89657e-05
3.65694e-05
2.65745e-05
2.59411e-05
2.67535e-05
2.75567e-05
2.81538e-05
2.85635e-05
2.88291e-05
2.89916e-05
2.9085e-05
2.9135e-05
2.91595e-05
2.91703e-05
2.91742e-05
2.91742e-05
2.91703e-05
2.91595e-05
2.9135e-05
2.90851e-05
2.89919e-05
2.88296e-05
2.85644e-05
2.81551e-05
2.75587e-05
2.67562e-05
2.59441e-05
2.65757e-05
3.65684e-05
7.89585e-05
7.9387e-05
3.68527e-05
2.65954e-05
2.57259e-05
2.6511e-05
2.73318e-05
2.79594e-05
2.84026e-05
2.87e-05
2.88908e-05
2.90075e-05
2.90756e-05
2.91132e-05
2.91325e-05
2.91404e-05
2.91404e-05
2.91324e-05
2.91131e-05
2.90755e-05
2.90074e-05
2.88907e-05
2.87001e-05
2.84029e-05
2.79602e-05
2.73332e-05
2.65131e-05
2.57286e-05
2.65967e-05
3.68524e-05
7.93812e-05
7.9893e-05
3.72607e-05
2.66822e-05
2.54644e-05
2.6196e-05
2.70305e-05
2.76903e-05
2.81701e-05
2.85037e-05
2.87273e-05
2.88722e-05
2.8963e-05
2.90176e-05
2.9048e-05
2.90615e-05
2.90615e-05
2.90479e-05
2.90175e-05
2.89628e-05
2.8872e-05
2.87271e-05
2.85036e-05
2.81701e-05
2.76906e-05
2.70315e-05
2.61979e-05
2.54671e-05
2.66841e-05
3.72611e-05
7.98885e-05
8.04712e-05
3.78398e-05
2.68964e-05
2.51699e-05
2.58035e-05
2.66417e-05
2.73286e-05
2.78434e-05
2.82138e-05
2.84727e-05
2.86491e-05
2.87664e-05
2.88413e-05
2.88856e-05
2.8906e-05
2.8906e-05
2.88856e-05
2.88413e-05
2.87663e-05
2.8649e-05
2.84724e-05
2.82135e-05
2.78431e-05
2.73286e-05
2.66423e-05
2.58051e-05
2.51728e-05
2.68995e-05
3.78413e-05
8.04681e-05
8.1127e-05
3.86685e-05
2.73649e-05
2.49147e-05
2.53584e-05
2.61583e-05
2.68527e-05
2.73937e-05
2.77976e-05
2.80916e-05
2.83012e-05
2.84474e-05
2.85453e-05
2.86054e-05
2.8634e-05
2.86341e-05
2.86056e-05
2.85456e-05
2.84476e-05
2.83014e-05
2.80915e-05
2.77974e-05
2.73933e-05
2.68524e-05
2.61584e-05
2.53594e-05
2.49173e-05
2.73682e-05
3.86714e-05
8.11254e-05
8.21281e-05
3.98984e-05
2.83297e-05
2.4891e-05
2.49012e-05
2.55646e-05
2.62352e-05
2.67894e-05
2.7221e-05
2.75474e-05
2.77897e-05
2.79655e-05
2.80875e-05
2.81643e-05
2.82016e-05
2.82017e-05
2.81648e-05
2.80882e-05
2.79663e-05
2.77906e-05
2.75481e-05
2.72213e-05
2.67895e-05
2.62351e-05
2.55644e-05
2.49016e-05
2.48927e-05
2.83337e-05
3.99032e-05
8.21278e-05
8.33045e-05
4.18525e-05
2.99625e-05
2.51882e-05
2.4442e-05
2.48562e-05
2.54649e-05
2.60177e-05
2.64676e-05
2.68199e-05
2.70904e-05
2.72928e-05
2.74369e-05
2.75293e-05
2.75745e-05
2.75748e-05
2.75303e-05
2.74384e-05
2.72947e-05
2.70924e-05
2.68217e-05
2.6469e-05
2.60187e-05
2.54654e-05
2.48563e-05
2.44424e-05
2.51898e-05
2.99673e-05
4.1865e-05
8.33064e-05
8.44452e-05
4.50174e-05
3.22225e-05
2.61144e-05
2.42594e-05
2.42145e-05
2.46834e-05
2.51937e-05
2.56258e-05
2.59773e-05
2.62581e-05
2.64733e-05
2.66292e-05
2.673e-05
2.67796e-05
2.67802e-05
2.67317e-05
2.66319e-05
2.64769e-05
2.6262e-05
2.59812e-05
2.56293e-05
2.51966e-05
2.46856e-05
2.42158e-05
2.426e-05
2.61159e-05
3.22278e-05
4.50312e-05
8.44508e-05
8.59435e-05
4.89249e-05
3.59853e-05
2.85142e-05
2.52461e-05
2.45852e-05
2.4761e-05
2.50624e-05
2.53336e-05
2.55752e-05
2.57859e-05
2.5954e-05
2.60794e-05
2.61624e-05
2.62037e-05
2.62046e-05
2.61649e-05
2.60836e-05
2.59596e-05
2.57923e-05
2.55817e-05
2.53394e-05
2.50678e-05
2.47656e-05
2.45886e-05
2.52486e-05
2.85171e-05
3.59935e-05
4.89389e-05
8.59518e-05
8.97409e-05
4.99039e-05
4.07525e-05
3.28941e-05
3.01695e-05
2.95801e-05
2.94072e-05
2.9166e-05
2.89395e-05
2.87416e-05
2.85806e-05
2.84648e-05
2.83901e-05
2.83458e-05
2.83251e-05
2.83258e-05
2.8348e-05
2.83942e-05
2.84706e-05
2.85875e-05
2.87484e-05
2.89465e-05
2.9173e-05
2.94143e-05
2.95852e-05
3.01732e-05
3.28968e-05
4.07576e-05
4.99141e-05
8.97476e-05
7.77253e-05
2.33282e-05
4.08675e-05
4.17348e-05
4.30616e-05
4.33721e-05
4.31033e-05
4.27705e-05
4.22919e-05
4.17852e-05
4.13384e-05
4.09873e-05
4.0733e-05
4.05685e-05
4.04879e-05
4.0488e-05
4.0569e-05
4.07339e-05
4.09888e-05
4.13407e-05
4.17883e-05
4.22956e-05
4.27751e-05
4.31095e-05
4.33839e-05
4.30736e-05
4.1745e-05
4.08748e-05
2.33346e-05
7.77337e-05
0.000210001
0.000106524
9.25412e-05
8.49948e-05
8.25562e-05
8.13273e-05
8.04624e-05
7.95347e-05
7.86763e-05
7.79765e-05
7.75095e-05
7.71987e-05
7.69736e-05
7.68241e-05
7.67493e-05
7.6749e-05
7.68234e-05
7.69725e-05
7.71973e-05
7.75081e-05
7.7976e-05
7.8676e-05
7.95346e-05
8.04629e-05
8.13291e-05
8.25598e-05
8.50006e-05
9.25506e-05
0.00010654
0.000210028
0.000189136
9.48472e-05
8.34704e-05
7.74793e-05
7.58402e-05
7.50857e-05
7.45011e-05
7.38905e-05
7.34073e-05
7.30239e-05
7.26789e-05
7.2384e-05
7.21673e-05
7.20261e-05
7.19562e-05
7.19555e-05
7.20238e-05
7.21636e-05
7.2379e-05
7.26725e-05
7.30155e-05
7.33979e-05
7.38811e-05
7.44931e-05
7.50794e-05
7.58363e-05
7.74793e-05
8.34765e-05
9.48618e-05
0.000189178
7.12243e-05
3.11344e-05
5.1537e-05
5.46174e-05
5.75368e-05
5.9711e-05
6.08628e-05
6.09034e-05
6.02317e-05
5.92109e-05
5.81271e-05
5.71605e-05
5.64019e-05
5.58876e-05
5.56287e-05
5.56275e-05
5.58843e-05
5.6397e-05
5.71547e-05
5.81212e-05
5.92057e-05
6.0228e-05
6.09027e-05
6.08663e-05
5.97179e-05
5.75467e-05
5.46298e-05
5.15528e-05
3.11496e-05
7.12494e-05
8.22074e-05
5.73468e-05
5.0973e-05
4.46281e-05
4.02614e-05
3.79966e-05
3.66594e-05
3.56813e-05
3.48685e-05
3.41332e-05
3.3482e-05
3.29532e-05
3.2562e-05
3.23077e-05
3.21832e-05
3.21835e-05
3.23087e-05
3.25637e-05
3.29556e-05
3.34853e-05
3.41373e-05
3.48741e-05
3.56926e-05
3.66716e-05
3.80075e-05
4.02706e-05
4.46369e-05
5.09866e-05
5.73702e-05
8.22295e-05
7.87761e-05
6.04422e-05
4.91288e-05
3.68084e-05
2.98503e-05
2.69924e-05
2.59965e-05
2.56538e-05
2.54817e-05
2.52835e-05
2.50713e-05
2.48963e-05
2.47694e-05
2.46895e-05
2.46517e-05
2.46524e-05
2.46916e-05
2.47729e-05
2.49012e-05
2.50775e-05
2.52903e-05
2.54879e-05
2.56588e-05
2.59998e-05
2.69942e-05
2.98523e-05
3.6813e-05
4.9144e-05
6.04673e-05
7.87968e-05
7.72235e-05
5.84415e-05
4.39656e-05
3.1467e-05
2.5416e-05
2.29538e-05
2.21933e-05
2.21398e-05
2.22821e-05
2.24342e-05
2.25529e-05
2.2652e-05
2.27272e-05
2.278e-05
2.28077e-05
2.28085e-05
2.27825e-05
2.27313e-05
2.26573e-05
2.25587e-05
2.2439e-05
2.22859e-05
2.21421e-05
2.21938e-05
2.29529e-05
2.54141e-05
3.14695e-05
4.39775e-05
5.84615e-05
7.72392e-05
7.63146e-05
5.67366e-05
3.8692e-05
2.79629e-05
2.33834e-05
2.17093e-05
2.14472e-05
2.17013e-05
2.20573e-05
2.23767e-05
2.26277e-05
2.28166e-05
2.29521e-05
2.30403e-05
2.30842e-05
2.30849e-05
2.30421e-05
2.29548e-05
2.282e-05
2.2631e-05
2.23789e-05
2.2058e-05
2.17001e-05
2.1444e-05
2.17055e-05
2.338e-05
2.79622e-05
3.87013e-05
5.67516e-05
7.63238e-05
7.57206e-05
5.45023e-05
3.46259e-05
2.58659e-05
2.24251e-05
2.15742e-05
2.1726e-05
2.21322e-05
2.25535e-05
2.29145e-05
2.31989e-05
2.34115e-05
2.35616e-05
2.36575e-05
2.37044e-05
2.37048e-05
2.36585e-05
2.35629e-05
2.34128e-05
2.31997e-05
2.29141e-05
2.25516e-05
2.21285e-05
2.17208e-05
2.15685e-05
2.2421e-05
2.58648e-05
3.4632e-05
5.45083e-05
7.57272e-05
7.52309e-05
5.21552e-05
3.2034e-05
2.46055e-05
2.20545e-05
2.1812e-05
2.21992e-05
2.26899e-05
2.31372e-05
2.35037e-05
2.37866e-05
2.39947e-05
2.41395e-05
2.42307e-05
2.42748e-05
2.42749e-05
2.4231e-05
2.41398e-05
2.39946e-05
2.37857e-05
2.35017e-05
2.31338e-05
2.26851e-05
2.21933e-05
2.1806e-05
2.20499e-05
2.4603e-05
3.20337e-05
5.21563e-05
7.52394e-05
7.47101e-05
4.98824e-05
3.03694e-05
2.37362e-05
2.19572e-05
2.21165e-05
2.26487e-05
2.3187e-05
2.36421e-05
2.40003e-05
2.42692e-05
2.44625e-05
2.45943e-05
2.46758e-05
2.47146e-05
2.47146e-05
2.46756e-05
2.45938e-05
2.44615e-05
2.42674e-05
2.39975e-05
2.36382e-05
2.31819e-05
2.26429e-05
2.21105e-05
2.19517e-05
2.37323e-05
3.03676e-05
4.98803e-05
7.47186e-05
7.42931e-05
4.7887e-05
2.92631e-05
2.32667e-05
2.20589e-05
2.24237e-05
2.30319e-05
2.35899e-05
2.40402e-05
2.43825e-05
2.46318e-05
2.48061e-05
2.49217e-05
2.49916e-05
2.50244e-05
2.50242e-05
2.49912e-05
2.49209e-05
2.48046e-05
2.46296e-05
2.43794e-05
2.40362e-05
2.3585e-05
2.30264e-05
2.24179e-05
2.20531e-05
2.32618e-05
2.92606e-05
4.78819e-05
7.43015e-05
7.39722e-05
4.62626e-05
2.85119e-05
2.30267e-05
2.22196e-05
2.26998e-05
2.33422e-05
2.39017e-05
2.43386e-05
2.46609e-05
2.48886e-05
2.50429e-05
2.51422e-05
2.52005e-05
2.52272e-05
2.5227e-05
2.51999e-05
2.51411e-05
2.50414e-05
2.48864e-05
2.46579e-05
2.43348e-05
2.38972e-05
2.33371e-05
2.26941e-05
2.22136e-05
2.30211e-05
2.85087e-05
4.62548e-05
7.39803e-05
7.37337e-05
4.50276e-05
2.79994e-05
2.29062e-05
2.23754e-05
2.29257e-05
2.35816e-05
2.41332e-05
2.45529e-05
2.48546e-05
2.50615e-05
2.51972e-05
2.52815e-05
2.53295e-05
2.53509e-05
2.53508e-05
2.53289e-05
2.52806e-05
2.51957e-05
2.50595e-05
2.48519e-05
2.45496e-05
2.41292e-05
2.35769e-05
2.29202e-05
2.23692e-05
2.29e-05
2.79949e-05
4.50176e-05
7.37413e-05
7.35662e-05
4.41572e-05
2.76614e-05
2.28468e-05
2.25007e-05
2.30944e-05
2.37545e-05
2.42955e-05
2.46987e-05
2.49821e-05
2.51714e-05
2.52917e-05
2.53639e-05
2.54036e-05
2.54209e-05
2.54207e-05
2.54031e-05
2.53631e-05
2.52905e-05
2.51697e-05
2.49798e-05
2.46959e-05
2.4292e-05
2.37502e-05
2.30892e-05
2.24943e-05
2.28401e-05
2.76561e-05
4.41456e-05
7.35729e-05
7.34623e-05
4.36172e-05
2.74642e-05
2.28213e-05
2.25867e-05
2.32056e-05
2.38659e-05
2.43979e-05
2.47885e-05
2.50584e-05
2.5235e-05
2.53445e-05
2.54082e-05
2.54422e-05
2.54566e-05
2.54564e-05
2.54418e-05
2.54076e-05
2.53435e-05
2.52337e-05
2.50566e-05
2.47862e-05
2.4395e-05
2.38621e-05
2.32007e-05
2.25804e-05
2.28143e-05
2.74582e-05
4.36051e-05
7.34681e-05
7.3418e-05
4.33976e-05
2.73807e-05
2.28144e-05
2.26303e-05
2.32603e-05
2.39201e-05
2.4447e-05
2.48309e-05
2.50937e-05
2.52637e-05
2.53676e-05
2.54271e-05
2.54581e-05
2.5471e-05
2.5471e-05
2.54578e-05
2.54266e-05
2.5367e-05
2.52628e-05
2.50924e-05
2.48291e-05
2.44446e-05
2.39168e-05
2.32558e-05
2.26243e-05
2.28074e-05
2.73748e-05
4.33901e-05
7.34229e-05
7.34211e-05
4.34e-05
2.73815e-05
2.28148e-05
2.26299e-05
2.32597e-05
2.39193e-05
2.44463e-05
2.48303e-05
2.50932e-05
2.52633e-05
2.53672e-05
2.54267e-05
2.54577e-05
2.54707e-05
2.54707e-05
2.54576e-05
2.54265e-05
2.53669e-05
2.52627e-05
2.50923e-05
2.48291e-05
2.44445e-05
2.39166e-05
2.32556e-05
2.26243e-05
2.28078e-05
2.73753e-05
4.33923e-05
7.34245e-05
7.34726e-05
4.36331e-05
2.74678e-05
2.28226e-05
2.25856e-05
2.32036e-05
2.38638e-05
2.4396e-05
2.47869e-05
2.50569e-05
2.52337e-05
2.53433e-05
2.54071e-05
2.54411e-05
2.54556e-05
2.54556e-05
2.54412e-05
2.54072e-05
2.53433e-05
2.52336e-05
2.50565e-05
2.47861e-05
2.43947e-05
2.38616e-05
2.32001e-05
2.25803e-05
2.28157e-05
2.74606e-05
4.36183e-05
7.34738e-05
7.35836e-05
4.41844e-05
2.76673e-05
2.28488e-05
2.24989e-05
2.30915e-05
2.37514e-05
2.42928e-05
2.46964e-05
2.49801e-05
2.51696e-05
2.52901e-05
2.53623e-05
2.54021e-05
2.54194e-05
2.54195e-05
2.54022e-05
2.53626e-05
2.52903e-05
2.51698e-05
2.49801e-05
2.46961e-05
2.42919e-05
2.37498e-05
2.30886e-05
2.24942e-05
2.28422e-05
2.766e-05
4.41679e-05
7.35826e-05
7.37581e-05
4.50651e-05
2.80063e-05
2.29082e-05
2.23731e-05
2.29221e-05
2.35782e-05
2.41303e-05
2.45506e-05
2.48526e-05
2.50597e-05
2.51955e-05
2.52798e-05
2.53277e-05
2.53493e-05
2.53494e-05
2.5328e-05
2.52802e-05
2.5196e-05
2.50602e-05
2.4853e-05
2.45507e-05
2.413e-05
2.35771e-05
2.29198e-05
2.2369e-05
2.29023e-05
2.79994e-05
4.50475e-05
7.3755e-05
7.4003e-05
4.63077e-05
2.85157e-05
2.30278e-05
2.2217e-05
2.26966e-05
2.33396e-05
2.38998e-05
2.43372e-05
2.46598e-05
2.48875e-05
2.50416e-05
2.51407e-05
2.51989e-05
2.52257e-05
2.52259e-05
2.51994e-05
2.51414e-05
2.50425e-05
2.48884e-05
2.46605e-05
2.43377e-05
2.38998e-05
2.33389e-05
2.26949e-05
2.22138e-05
2.3023e-05
2.8511e-05
4.62901e-05
7.39978e-05
7.43295e-05
4.79355e-05
2.92664e-05
2.3269e-05
2.2058e-05
2.24226e-05
2.30315e-05
2.35903e-05
2.40409e-05
2.43832e-05
2.46321e-05
2.48059e-05
2.49211e-05
2.49907e-05
2.50235e-05
2.50238e-05
2.49914e-05
2.49221e-05
2.48071e-05
2.46333e-05
2.43843e-05
2.40417e-05
2.35906e-05
2.30311e-05
2.24212e-05
2.20552e-05
2.32644e-05
2.92624e-05
4.7919e-05
7.43224e-05
7.47514e-05
4.99308e-05
3.03738e-05
2.37418e-05
2.19602e-05
2.21195e-05
2.26525e-05
2.31912e-05
2.36463e-05
2.40038e-05
2.42718e-05
2.44642e-05
2.45952e-05
2.46762e-05
2.4715e-05
2.47153e-05