/*--------------------------------*- C++ -*----------------------------------*\
| =========                 |                                                 |
| \\      /  F ield         | OpenFOAM: The Open Source CFD Toolbox           |
|  \\    /   O peration     | Version:  2312                                  |
|   \\  /    A nd           | Website:  www.openfoam.com                      |
|    \\/     M anipulation  |                                                 |
\*---------------------------------------------------------------------------*/
FoamFile
{
    version     2.0;
    format      ascii;
    arch        "LSB;label=32;scalar=64";
    class       volScalarField;
    location    "400";
    object      nut;
}
// * * * * * * * * * * * * * * * * * * * * * * * * * * * * * * * * * * * * * //

dimensions      [0 2 -1 0 0 0 0];

internalField   nonuniform List<scalar> 
27000
(
3.95245e-06
6.70764e-06
9.36431e-06
1.17401e-05
1.40484e-05
1.62026e-05
1.81581e-05
1.98096e-05
2.123e-05
2.2443e-05
2.3444e-05
2.42365e-05
2.48279e-05
2.52212e-05
2.54175e-05
2.54177e-05
2.52215e-05
2.48285e-05
2.42372e-05
2.34448e-05
2.24437e-05
2.12306e-05
1.98102e-05
1.81586e-05
1.6203e-05
1.40487e-05
1.17403e-05
9.36447e-06
6.70771e-06
3.9525e-06
5.75184e-06
1.28059e-06
5.16095e-06
9.07798e-06
1.31627e-05
1.7042e-05
2.07067e-05
2.41146e-05
2.72015e-05
2.99471e-05
3.23323e-05
3.43191e-05
3.58553e-05
3.69007e-05
3.74296e-05
3.74292e-05
3.68993e-05
3.58531e-05
3.43163e-05
3.23294e-05
2.99445e-05
2.71989e-05
2.41124e-05
2.07052e-05
1.70413e-05
1.31624e-05
9.07781e-06
5.16087e-06
1.2805e-06
5.75194e-06
9.22727e-06
7.14128e-06
1.45145e-05
2.61371e-05
3.68644e-05
4.62214e-05
5.47783e-05
6.28045e-05
7.01182e-05
7.65827e-05
8.21236e-05
8.66762e-05
9.01643e-05
9.25239e-05
9.37129e-05
9.37114e-05
9.25195e-05
9.01572e-05
8.6667e-05
8.21134e-05
7.65723e-05
7.01077e-05
6.2795e-05
5.47709e-05
4.62167e-05
3.68627e-05
2.61374e-05
1.45154e-05
7.14165e-06
9.22756e-06
1.21557e-05
1.0841e-05
2.60407e-05
5.26293e-05
7.82527e-05
9.63501e-05
0.000109826
0.000120873
0.000130206
0.000137984
0.000144375
0.000149462
0.000153268
0.000155803
0.000157069
0.000157068
0.000155799
0.000153262
0.000149454
0.000144366
0.000137973
0.000130195
0.000120862
0.000109818
9.63447e-05
7.82504e-05
5.26289e-05
2.60416e-05
1.08415e-05
1.21562e-05
1.49202e-05
1.4476e-05
3.68568e-05
7.61794e-05
0.000113305
0.000139154
0.000155979
0.000167783
0.00017671
0.000183224
0.000188255
0.000192167
0.000195033
0.000196917
0.000197852
0.000197851
0.000196915
0.000195029
0.000192161
0.000188248
0.000183216
0.000176702
0.000167776
0.000155973
0.000139149
0.000113302
7.61769e-05
3.68556e-05
1.44761e-05
1.49209e-05
1.74807e-05
1.84142e-05
4.7688e-05
9.52206e-05
0.000137813
0.00016719
0.000185385
0.00019677
0.000204292
0.000209404
0.000212994
0.000215574
0.000217384
0.000218543
0.000219111
0.00021911
0.000218541
0.00021738
0.00021557
0.000212989
0.000209398
0.000204286
0.000196764
0.000185379
0.000167186
0.000137807
9.52141e-05
4.7683e-05
1.84135e-05
1.74816e-05
1.98131e-05
2.25605e-05
5.8576e-05
0.000111485
0.000155729
0.000185079
0.000202814
0.000213182
0.000219332
0.000223087
0.000225457
0.000227
0.000228005
0.000228619
0.000228912
0.000228912
0.000228617
0.000228002
0.000226996
0.000225452
0.000223082
0.000219327
0.000213177
0.000202808
0.000185072
0.00015572
0.000111474
5.85675e-05
2.25589e-05
1.98144e-05
2.18978e-05
2.67598e-05
6.91306e-05
0.000125585
0.000169821
0.000197312
0.000213333
0.000222232
0.000227081
0.000229723
0.000231182
0.000232007
0.000232481
0.000232744
0.000232863
0.000232862
0.000232742
0.000232477
0.000232003
0.000231177
0.000229718
0.000227075
0.000222226
0.000213326
0.000197304
0.00016981
0.00012557
6.91176e-05
2.67565e-05
2.18998e-05
2.37112e-05
3.08861e-05
7.89968e-05
0.000137675
0.00018096
0.000206038
0.000219959
0.000227272
0.000230944
0.000232711
0.000233527
0.000233885
0.000234036
0.000234095
0.000234114
0.000234114
0.000234093
0.000234033
0.000233881
0.000233522
0.000232706
0.000230938
0.000227266
0.000219951
0.000206028
0.000180945
0.000137656
7.89798e-05
3.08815e-05
2.37135e-05
2.52656e-05
3.4779e-05
8.79452e-05
0.000147805
0.000188833
0.000212097
0.0002242
0.000230123
0.000232824
0.000233934
0.000234312
0.000234384
0.000234352
0.000234304
0.000234274
0.000234274
0.000234302
0.000234349
0.00023438
0.000234307
0.000233929
0.000232818
0.000230116
0.000224191
0.000212085
0.000188817
0.000147784
8.79257e-05
3.47734e-05
2.52682e-05
2.65613e-05
3.82842e-05
9.57593e-05
0.000156289
0.000195384
0.000216549
0.000227011
0.000231779
0.000233723
0.00023436
0.000234454
0.00023436
0.000234234
0.000234137
0.000234085
0.000234085
0.000234134
0.000234231
0.000234355
0.000234448
0.000234354
0.000233716
0.000231771
0.000227001
0.000216537
0.000195367
0.000156266
9.57387e-05
3.8278e-05
2.6564e-05
2.75977e-05
4.12653e-05
0.000102223
0.000163058
0.000200489
0.000219838
0.00022892
0.000232771
0.000234149
0.000234461
0.000234376
0.000234192
0.000234025
0.00023391
0.000233854
0.000233853
0.000233908
0.000234021
0.000234187
0.00023437
0.000234454
0.000234142
0.000232762
0.00022891
0.000219825
0.000200472
0.000163036
0.000102202
4.12589e-05
2.76004e-05
2.83748e-05
4.36074e-05
0.000107187
0.000168134
0.00020421
0.000222154
0.000230193
0.00023337
0.000234352
0.000234449
0.000234258
0.00023403
0.000233849
0.000233733
0.000233678
0.000233677
0.000233731
0.000233846
0.000234025
0.000234253
0.000234442
0.000234344
0.000233361
0.000230182
0.000222142
0.000204193
0.000168111
0.000107167
4.36012e-05
2.83774e-05
2.88927e-05
4.52204e-05
0.00011055
0.000171533
0.000206638
0.000223628
0.000230973
0.000233714
0.000234447
0.000234415
0.000234167
0.000233919
0.000233736
0.000233624
0.000233572
0.000233572
0.000233623
0.000233733
0.000233915
0.000234162
0.000234409
0.000234439
0.000233706
0.000230964
0.000223616
0.000206622
0.000171512
0.000110532
4.52148e-05
2.88951e-05
2.91516e-05
4.60426e-05
0.000112246
0.00017323
0.000207834
0.000224343
0.000231345
0.000233871
0.000234485
0.000234394
0.000234121
0.000233866
0.000233684
0.000233575
0.000233526
0.000233525
0.000233574
0.000233682
0.000233863
0.000234117
0.000234388
0.000234479
0.000233864
0.000231336
0.000224332
0.00020782
0.000173212
0.00011223
4.60377e-05
2.91537e-05
2.91513e-05
4.60432e-05
0.000112248
0.000173233
0.000207836
0.000224344
0.000231346
0.000233873
0.000234487
0.000234395
0.000234123
0.000233868
0.000233686
0.000233578
0.000233528
0.000233528
0.000233577
0.000233685
0.000233866
0.000234119
0.000234391
0.000234482
0.000233867
0.000231339
0.000224335
0.000207824
0.000173217
0.000112235
4.60393e-05
2.91531e-05
2.8892e-05
4.52222e-05
0.000110554
0.000171541
0.000206643
0.000223632
0.000230977
0.000233718
0.000234451
0.00023442
0.000234172
0.000233925
0.000233743
0.000233631
0.00023358
0.00023358
0.000233631
0.000233742
0.000233924
0.00023417
0.000234417
0.000234448
0.000233714
0.000230972
0.000223625
0.000206634
0.000171528
0.000110544
4.52193e-05
2.88935e-05
2.83737e-05
4.36102e-05
0.000107194
0.000168145
0.000204217
0.00022216
0.000230199
0.000233377
0.000234359
0.000234457
0.000234267
0.00023404
0.00023386
0.000233745
0.000233691
0.000233691
0.000233745
0.000233859
0.000234039
0.000234266
0.000234456
0.000234357
0.000233374
0.000230195
0.000222155
0.00020421
0.000168135
0.000107186
4.36082e-05
2.83748e-05
2.75963e-05
4.12688e-05
0.000102231
0.000163068
0.000200497
0.000219845
0.000228928
0.00023278
0.000234159
0.000234472
0.000234388
0.000234206
0.00023404
0.000233927
0.000233872
0.000233872
0.000233927
0.00023404
0.000234206
0.000234388
0.000234472
0.000234159
0.000232779
0.000228926
0.000219842
0.000200492
0.000163061
0.000102227
4.12676e-05
2.75971e-05
2.65597e-05
3.8288e-05
9.57682e-05
0.000156298
0.000195393
0.000216559
0.000227021
0.000231791
0.000233736
0.000234375
0.00023447
0.000234378
0.000234255
0.000234159
0.000234109
0.000234109
0.000234159
0.000234255
0.000234379
0.000234471
0.000234376
0.000233736
0.000231791
0.00022702
0.000216557
0.00019539
0.000156294
9.57661e-05
3.82875e-05
2.65602e-05
2.52639e-05
3.4783e-05
8.7955e-05
0.000147816
0.000188844
0.000212109
0.000224213
0.000230138
0.00023284
0.000233953
0.000234333
0.000234408
0.000234379
0.000234333
0.000234304
0.000234304
0.000234333
0.000234379
0.000234409
0.000234334
0.000233954
0.000232841
0.000230139
0.000224213
0.000212108
0.000188843
0.000147814
8.79545e-05
3.47829e-05
2.52642e-05
2.37095e-05
3.089e-05
7.90076e-05
0.000137687
0.000180978
0.000206055
0.000219976
0.00022729
0.000230964
0.000232734
0.000233552
0.000233915
0.000234068
0.000234129
0.00023415
0.00023415
0.000234129
0.000234068
0.000233915
0.000233553
0.000232736
0.000230966
0.000227292
0.000219977
0.000206055
0.000180978
0.000137687
7.90078e-05
3.08901e-05
2.37096e-05
2.18963e-05
2.67628e-05
6.91388e-05
0.000125595
0.000169839
0.00019733
0.000213352
0.000222254
0.000227105
0.00022975
0.000231213
0.000232042
0.000232519
0.000232784
0.000232904
0.000232904
0.000232784
0.000232519
0.000232042
0.000231214
0.000229752
0.000227107
0.000222256
0.000213355
0.000197332
0.000169842
0.000125598
6.91411e-05
2.67631e-05
2.18962e-05
1.9812e-05
2.2562e-05
5.85804e-05
0.000111492
0.000155742
0.000185099
0.000202837
0.000213208
0.000219361
0.000223121
0.000225495
0.000227042
0.000228051
0.000228666
0.00022896
0.00022896
0.000228666
0.00022805
0.000227042
0.000225496
0.000223122
0.000219364
0.000213212
0.000202841
0.000185103
0.000155748
0.000111498
5.85847e-05
2.25626e-05
1.98118e-05
1.74798e-05
1.84143e-05
4.76874e-05
9.52244e-05
0.000137826
0.000167213
0.000185412
0.000196801
0.000204328
0.000209446
0.000213041
0.000215626
0.000217438
0.000218598
0.000219165
0.000219165
0.000218597
0.000217437
0.000215625
0.000213041
0.000209447
0.000204331
0.000196806
0.000185419
0.00016722
0.000137835
9.52339e-05
4.76937e-05
1.84152e-05
1.74796e-05
1.49197e-05
1.44754e-05
3.68543e-05
7.61797e-05
0.000113316
0.000139174
0.000156006
0.00016782
0.000176756
0.00018328
0.000188312
0.000192229
0.000195098
0.000196982
0.000197916
0.000197916
0.000196981
0.000195097
0.000192229
0.000188312
0.000183277
0.000176758
0.000167825
0.000156015
0.000139184
0.000113327
7.61908e-05
3.68603e-05
1.44761e-05
1.49194e-05
1.21554e-05
1.08401e-05
2.60371e-05
5.26273e-05
7.82576e-05
9.63623e-05
0.000109845
0.000120899
0.000130242
0.00013803
0.000144434
0.000149531
0.000153341
0.000155877
0.000157144
0.000157144
0.000155876
0.000153339
0.000149529
0.000144433
0.000138032
0.000130246
0.000120906
0.000109854
9.63719e-05
7.82671e-05
5.26361e-05
2.6041e-05
1.08402e-05
1.21553e-05
9.22721e-06
7.14089e-06
1.45119e-05
2.61349e-05
3.68654e-05
4.62264e-05
5.47893e-05
6.28216e-05
7.01424e-05
7.66157e-05
8.21695e-05
8.6731e-05
9.0222e-05
9.25823e-05
9.37726e-05
9.37723e-05
9.25811e-05
9.02195e-05
8.67279e-05
8.21668e-05
7.66149e-05
7.01432e-05
6.28237e-05
5.47922e-05
4.62302e-05
3.68688e-05
2.61378e-05
1.45129e-05
7.14138e-06
9.22722e-06
5.75201e-06
1.28069e-06
5.16061e-06
9.07744e-06
1.31628e-05
1.70427e-05
2.07083e-05
2.41172e-05
2.72055e-05
2.9953e-05
3.2342e-05
3.43314e-05
3.58691e-05
3.69154e-05
3.7445e-05
3.74449e-05
3.6915e-05
3.58684e-05
3.43306e-05
3.23413e-05
2.99525e-05
2.72052e-05
2.41171e-05
2.07083e-05
1.70427e-05
1.31623e-05
9.07691e-06
5.15965e-06
1.28064e-06
5.75193e-06
3.95234e-06
6.70714e-06
9.36367e-06
1.17391e-05
1.40469e-05
1.62006e-05
1.81556e-05
1.98066e-05
2.12264e-05
2.24388e-05
2.34384e-05
2.42302e-05
2.48212e-05
2.52141e-05
2.54103e-05
2.54103e-05
2.52143e-05
2.48215e-05
2.42305e-05
2.34388e-05
2.24391e-05
2.12267e-05
1.98069e-05
1.81559e-05
1.62008e-05
1.4047e-05
1.17391e-05
9.36364e-06
6.70698e-06
3.95226e-06
3.55765e-06
6.08266e-06
8.69024e-06
1.10687e-05
1.34489e-05
1.56986e-05
1.77703e-05
1.95428e-05
2.10776e-05
2.24006e-05
2.35211e-05
2.44313e-05
2.51175e-05
2.55761e-05
2.58057e-05
2.58056e-05
2.55759e-05
2.51172e-05
2.4431e-05
2.35208e-05
2.24005e-05
2.10776e-05
1.95428e-05
1.77703e-05
1.56986e-05
1.3449e-05
1.10687e-05
8.69027e-06
6.08277e-06
3.55759e-06
5.11566e-06
1.60717e-06
7.44509e-06
1.10157e-05
1.45991e-05
1.76157e-05
2.02117e-05
2.2614e-05
2.47014e-05
2.64828e-05
2.79551e-05
2.91212e-05
2.99938e-05
3.05764e-05
3.08684e-05
3.08685e-05
3.05769e-05
2.99946e-05
2.91224e-05
2.79564e-05
2.64841e-05
2.4703e-05
2.26158e-05
2.02136e-05
1.76176e-05
1.4601e-05
1.10173e-05
7.44652e-06
1.60728e-06
5.11525e-06
8.68088e-06
1.01803e-05
1.32273e-05
1.67046e-05
2.1865e-05
2.73081e-05
3.23332e-05
3.67231e-05
4.07234e-05
4.42941e-05
4.73342e-05
4.97909e-05
5.16419e-05
5.28751e-05
5.34927e-05
5.34936e-05
5.2878e-05
5.16468e-05
4.97981e-05
4.73418e-05
4.43016e-05
4.07312e-05
3.67306e-05
3.23389e-05
2.73113e-05
2.18667e-05
1.67055e-05
1.32263e-05
1.01789e-05
8.68007e-06
1.15685e-05
1.33995e-05
1.79037e-05
2.56958e-05
3.60161e-05
4.66788e-05
5.61127e-05
6.43049e-05
7.15692e-05
7.80888e-05
8.37061e-05
8.82509e-05
9.1664e-05
9.39256e-05
9.50519e-05
9.50538e-05
9.39311e-05
9.16724e-05
8.82609e-05
8.37154e-05
7.80964e-05
7.1576e-05
6.43083e-05
5.61112e-05
4.6674e-05
3.6014e-05
2.5696e-05
1.79018e-05
1.33988e-05
1.15675e-05
1.44279e-05
1.58817e-05
2.28045e-05
3.59441e-05
5.45614e-05
7.40571e-05
9.01469e-05
0.000102621
0.000112767
0.000121504
0.000128674
0.000134249
0.000138329
0.00014092
0.00014218
0.000142182
0.000140924
0.000138333
0.000134253
0.000128678
0.000121508
0.000112769
0.000102619
9.01381e-05
7.40458e-05
5.45525e-05
3.59417e-05
2.2806e-05
1.58812e-05
1.44268e-05
1.71461e-05
1.81047e-05
2.86193e-05
4.71443e-05
7.36069e-05
0.000100254
0.000122387
0.000138259
0.000149782
0.000158588
0.000165388
0.000170511
0.000174174
0.000176509
0.000177642
0.000177643
0.000176513
0.000174179
0.000170517
0.000165395
0.000158596
0.000149788
0.000138262
0.000122386
0.000100249
7.35988e-05
4.71406e-05
2.86233e-05
1.81039e-05
1.7145e-05
1.96596e-05
2.05471e-05
3.39725e-05
5.83483e-05
9.10798e-05
0.000122624
0.000147002
0.000164257
0.000176215
0.000184644
0.000190693
0.000195017
0.000197999
0.000199869
0.000200769
0.00020077
0.000199873
0.000198006
0.000195025
0.000190703
0.000184655
0.000176226
0.000164266
0.000147008
0.000122627
9.10797e-05
5.83503e-05
3.39779e-05
2.05491e-05
1.96583e-05
2.19631e-05
2.30285e-05
3.9052e-05
6.88987e-05
0.000106106
0.000139874
0.000164876
0.000182196
0.000193825
0.000201595
0.000206819
0.000210332
0.000212639
0.000214039
0.000214701
0.000214703
0.000214044
0.000212647
0.000210342
0.000206831
0.000201609
0.000193839
0.000182208
0.000164886
0.000139884
0.000106117
6.89098e-05
3.90601e-05
2.30319e-05
2.19609e-05
2.40622e-05
2.53398e-05
4.39215e-05
7.88051e-05
0.000119038
0.000153256
0.00017784
0.00019444
0.000205262
0.000212189
0.000216591
0.000219372
0.000221095
0.000222095
0.000222554
0.000222556
0.0002221
0.000221104
0.000219384
0.000216605
0.000212205
0.000205278
0.000194456
0.000177855
0.000153272
0.000119058
7.88249e-05
4.39319e-05
2.53441e-05
2.40597e-05
2.59014e-05
2.74189e-05
4.83424e-05
8.74781e-05
0.000130202
0.000163811
0.000187342
0.000202831
0.000212629
0.000218656
0.00022229
0.000224445
0.000225693
0.000226376
0.000226677
0.000226679
0.000226381
0.000225703
0.000224457
0.000222305
0.000218673
0.000212646
0.000202848
0.000187358
0.000163828
0.000130223
8.75032e-05
4.83538e-05
2.74235e-05
2.58987e-05
2.74598e-05
2.92314e-05
5.21923e-05
9.46471e-05
0.000138559
0.000171775
0.000194236
0.000208578
0.000217357
0.000222542
0.000225507
0.000227151
0.000228031
0.000228476
0.000228661
0.000228663
0.000228482
0.000228041
0.000227163
0.000225522
0.000222559
0.000217375
0.000208596
0.000194254
0.000171793
0.000138581
9.46754e-05
5.22035e-05
2.92361e-05
2.7457e-05
2.87228e-05
3.07412e-05
5.54083e-05
0.000100395
0.000144907
0.000177633
0.000199141
0.000212474
0.000220368
0.000224843
0.000227268
0.000228519
0.000229128
0.000229403
0.000229507
0.000229509
0.000229409
0.000229137
0.000228531
0.000227283
0.00022486
0.000220386
0.000212492
0.000199159
0.000177652
0.00014493
0.000100425
5.5419e-05
3.07457e-05
2.872e-05
2.96792e-05
3.19129e-05
5.79179e-05
0.000104767
0.000149563
0.000181791
0.00020251
0.000215039
0.000222243
0.000226176
0.0002282
0.000229169
0.000229591
0.000229753
0.000229804
0.000229806
0.000229759
0.0002296
0.000229181
0.000228214
0.000226192
0.00022226
0.000215057
0.000202529
0.000181811
0.000149587
0.000104796
5.79276e-05
3.1917e-05
2.96765e-05
3.0321e-05
3.27155e-05
5.96426e-05
0.00010774
0.000152649
0.000184478
0.000204629
0.0002166
0.000223333
0.000226903
0.000228665
0.000229454
0.00022976
0.000229854
0.000229873
0.000229875
0.000229859
0.000229768
0.000229465
0.000228678
0.000226918
0.000223349
0.000216617
0.000204647
0.000184497
0.000152672
0.000107768
5.96508e-05
3.27191e-05
3.03184e-05
3.06431e-05
3.3127e-05
6.05248e-05
0.000109238
0.000154188
0.000185799
0.000205654
0.000217339
0.000223834
0.000227223
0.000228856
0.000229558
0.000229808
0.00022987
0.000229874
0.000229875
0.000229874
0.000229815
0.000229566
0.000228867
0.000227236
0.000223848
0.000217354
0.00020567
0.000185817
0.00015421
0.000109264
6.05318e-05
3.31302e-05
3.06407e-05
3.06431e-05
3.31274e-05
6.05252e-05
0.000109235
0.000154186
0.000185797
0.000205652
0.000217337
0.000223832
0.000227221
0.000228853
0.000229555
0.000229806
0.000229867
0.000229871
0.000229872
0.00022987
0.000229811
0.000229562
0.000228862
0.000227231
0.000223843
0.00021735
0.000205666
0.000185813
0.000154205
0.000109258
6.05304e-05
3.31299e-05
3.0641e-05
3.0321e-05
3.27173e-05
5.96442e-05
0.000107731
0.000152642
0.000184472
0.000204623
0.000216594
0.000223326
0.000226896
0.000228658
0.000229447
0.000229752
0.000229845
0.000229864
0.000229864
0.000229847
0.000229756
0.000229452
0.000228665
0.000226904
0.000223335
0.000216604
0.000204634
0.000184485
0.000152658
0.000107751
5.96472e-05
3.27187e-05
3.03192e-05
2.96792e-05
3.19158e-05
5.79203e-05
0.000104751
0.00014955
0.00018178
0.0002025
0.000215028
0.000222231
0.000226164
0.000228188
0.000229156
0.000229577
0.000229738
0.000229788
0.000229788
0.000229739
0.000229579
0.000229159
0.000228192
0.000226169
0.000222237
0.000215035
0.000202507
0.00018179
0.000149563
0.000104767
5.79214e-05
3.19164e-05
2.96777e-05
2.87227e-05
3.07447e-05
5.54109e-05
0.00010037
0.000144887
0.000177616
0.000199125
0.000212457
0.00022035
0.000224825
0.000227249
0.000228498
0.000229107
0.00022938
0.000229483
0.000229483
0.000229381
0.000229108
0.0002285
0.000227251
0.000224828
0.000220354
0.000212461
0.00019913
0.000177622
0.000144896
0.000100382
5.54101e-05
3.07446e-05
2.87215e-05
2.74597e-05
2.9235e-05
5.21974e-05
9.46177e-05
0.000138534
0.000171752
0.000194214
0.000208555
0.000217333
0.000222517
0.00022548
0.000227122
0.000228002
0.000228445
0.000228628
0.000228628
0.000228445
0.000228002
0.000227123
0.000225481
0.000222518
0.000217335
0.000208557
0.000194216
0.000171755
0.000138539
9.46262e-05
5.21939e-05
2.92343e-05
2.74588e-05
2.59012e-05
2.74215e-05
4.83448e-05
8.74421e-05
0.000130169
0.00016378
0.000187312
0.000202801
0.000212598
0.000218624
0.000222255
0.000224408
0.000225654
0.000226335
0.000226635
0.000226635
0.000226335
0.000225655
0.000224408
0.000222256
0.000218625
0.000212599
0.000202801
0.000187312
0.000163782
0.000130172
8.74492e-05
4.83415e-05
2.74207e-05
2.59006e-05
2.40619e-05
2.53407e-05
4.39143e-05
7.87627e-05
0.000118989
0.000153216
0.000177802
0.000194403
0.000205225
0.00021215
0.000216548
0.000219326
0.000221047
0.000222045
0.000222503
0.000222504
0.000222046
0.000221048
0.000219326
0.000216549
0.00021215
0.000205226
0.000194404
0.000177802
0.000153216
0.000118993
7.87697e-05
4.39167e-05
2.53402e-05
2.40615e-05
2.19627e-05
2.30279e-05
3.905e-05
6.88613e-05
0.000106056
0.000139828
0.000164831
0.000182153
0.000193782
0.000201548
0.000206766
0.000210274
0.000212579
0.00021398
0.000214643
0.000214644
0.000213982
0.000212581
0.000210276
0.000206768
0.000201549
0.000193783
0.000182153
0.00016483
0.000139827
0.000106057
6.8863e-05
3.90469e-05
2.30276e-05
2.19626e-05
1.96588e-05
2.05454e-05
3.39744e-05
5.83289e-05
9.10346e-05
0.000122566
0.000146948
0.000164208
0.000176165
0.000184587
0.000190626
0.000194943
0.000197925
0.000199799
0.000200703
0.000200704
0.000199802
0.000197928
0.000194947
0.000190629
0.000184589
0.000176166
0.000164209
0.000146948
0.000122565
9.10316e-05
5.83242e-05
3.39695e-05
2.05456e-05
1.96588e-05
1.71451e-05
1.80965e-05
2.86245e-05
4.71352e-05
7.35733e-05
0.000100198
0.000122321
0.000138202
0.00014972
0.000158511
0.000165296
0.000170409
0.000174074
0.000176423
0.000177564
0.000177566
0.000176427
0.00017408
0.000170416
0.000165303
0.000158517
0.000149723
0.000138204
0.000122322
0.000100197
7.35684e-05
4.71286e-05
2.86184e-05
1.81004e-05
1.71453e-05
1.44267e-05
1.58754e-05
2.28076e-05
3.5953e-05
5.45532e-05
7.40173e-05
9.00888e-05
0.000102553
0.000112681
0.00012139
0.00012854
0.0001341
0.000138183
0.000140807
0.00014208
0.000142082
0.000140813
0.000138194
0.000134113
0.000128553
0.000121406
0.000112692
0.000102561
9.00941e-05
7.40185e-05
5.45478e-05
3.59431e-05
2.28034e-05
1.5879e-05
1.44273e-05
1.15675e-05
1.33956e-05
1.79028e-05
2.57035e-05
3.60245e-05
4.66718e-05
5.60966e-05
6.42775e-05
7.15224e-05
7.79984e-05
8.35817e-05
8.8108e-05
9.15223e-05
9.37938e-05
9.49244e-05
9.49273e-05
9.38031e-05
9.15389e-05
8.81292e-05
8.3603e-05
7.80153e-05
7.15333e-05
6.42846e-05
5.61004e-05
4.66729e-05
3.60233e-05
2.56989e-05
1.79033e-05
1.33991e-05
1.15681e-05
8.68031e-06
1.01809e-05
1.32282e-05
1.6708e-05
2.18703e-05
2.73143e-05
3.23388e-05
3.67276e-05
4.07232e-05
4.42845e-05
4.72954e-05
4.97468e-05
5.16161e-05
5.28675e-05
5.34885e-05
5.34887e-05
5.28691e-05
5.16236e-05
4.97573e-05
4.7306e-05
4.42873e-05
4.07234e-05
3.67264e-05
3.23369e-05
2.731e-05
2.18669e-05
1.6706e-05
1.32282e-05
1.01823e-05
8.68072e-06
5.11541e-06
1.60635e-06
7.44355e-06
1.10129e-05
1.45951e-05
1.76104e-05
2.02078e-05
2.26105e-05
2.46985e-05
2.64803e-05
2.79508e-05
2.91168e-05
2.99902e-05
3.05735e-05
3.08655e-05
3.08653e-05
3.05729e-05
2.99895e-05
2.9116e-05
2.795e-05
2.64794e-05
2.46977e-05
2.26101e-05
2.0208e-05
1.76135e-05
1.45978e-05
1.10147e-05
7.44455e-06
1.60674e-06
5.11566e-06
3.55768e-06
6.08279e-06
8.69047e-06
1.10691e-05
1.34495e-05
1.56994e-05
1.77713e-05
1.95437e-05
2.10786e-05
2.24019e-05
2.35243e-05
2.4435e-05
2.51215e-05
2.55804e-05
2.58101e-05
2.58101e-05
2.55803e-05
2.51215e-05
2.4435e-05
2.35243e-05
2.2402e-05
2.10787e-05
1.95439e-05
1.77716e-05
1.56998e-05
1.345e-05
1.10696e-05
8.69101e-06
6.08324e-06
3.5579e-06
3.37628e-06
5.73967e-06
8.2536e-06
1.05685e-05
1.2891e-05
1.50851e-05
1.71005e-05
1.88375e-05
2.03604e-05
2.16786e-05
2.27793e-05
2.36606e-05
2.43242e-05
2.47682e-05
2.49906e-05
2.49905e-05
2.47678e-05
2.43235e-05
2.36596e-05
2.27782e-05
2.16772e-05
2.0359e-05
1.88362e-05
1.70994e-05
1.50844e-05
1.28907e-05
1.05686e-05
8.25403e-06
5.74034e-06
3.37675e-06
4.89674e-06
2.56042e-06
1.07551e-05
1.60415e-05
2.11048e-05
2.5582e-05
2.9387e-05
3.23496e-05
3.46231e-05
3.63409e-05
3.76366e-05
3.86073e-05
3.93059e-05
3.97604e-05
3.99846e-05
3.99842e-05
3.97593e-05
3.93043e-05
3.86055e-05
3.76348e-05
3.63395e-05
3.4622e-05
3.23498e-05
2.93886e-05
2.55847e-05
2.11084e-05
1.60452e-05
1.07588e-05
2.56157e-06
4.89771e-06
8.30809e-06
1.31815e-05
1.73046e-05
2.10685e-05
2.40829e-05
2.71831e-05
3.0171e-05
3.30342e-05
3.57825e-05
3.82875e-05
4.0459e-05
4.22583e-05
4.36477e-05
4.45957e-05
4.50761e-05
4.50768e-05
4.45976e-05
4.36502e-05
4.22604e-05
4.04602e-05
3.82874e-05
3.57814e-05
3.30384e-05
3.01755e-05
2.71871e-05
2.40864e-05
2.10715e-05
1.7308e-05
1.31864e-05
8.30929e-06
1.10748e-05
1.83064e-05
2.33271e-05
2.48541e-05
2.86643e-05
3.49921e-05
4.16053e-05
4.77685e-05
5.32455e-05
5.79015e-05
6.17691e-05
6.49301e-05
6.73462e-05
6.89869e-05
6.98157e-05
6.98169e-05
6.89905e-05
6.7352e-05
6.49376e-05
6.17775e-05
5.79086e-05
5.3246e-05
4.77542e-05
4.15931e-05
3.49857e-05
2.86618e-05
2.48534e-05
2.33315e-05
1.8313e-05
1.10763e-05
1.37963e-05
2.22392e-05
2.64224e-05
2.9526e-05
3.87168e-05
5.06433e-05
6.18963e-05
7.16854e-05
7.97973e-05
8.66484e-05
9.23311e-05
9.69518e-05
0.000100455
0.000102961
0.00010425
0.000104253
0.000102969
0.00010047
9.69709e-05
9.23495e-05
8.66568e-05
7.97978e-05
7.16794e-05
6.18928e-05
5.06417e-05
3.87128e-05
2.95218e-05
2.64238e-05
2.22439e-05
1.37977e-05
1.64103e-05
2.5655e-05
2.86515e-05
3.59006e-05
5.07503e-05
6.8499e-05
8.56458e-05
0.000100847
0.000112986
0.000122463
0.000129855
0.000135521
0.000139595
0.000142254
0.000143578
0.000143578
0.000142255
0.000139599
0.000135531
0.000129862
0.00012246
0.000112974
0.000100831
8.56301e-05
6.84881e-05
5.07421e-05
3.589e-05
2.86509e-05
2.56587e-05
1.64111e-05
1.88766e-05
2.82471e-05
3.10286e-05
4.35953e-05
6.30439e-05
8.61419e-05
0.000109518
0.000128513
0.000142466
0.000152721
0.000160318
0.000165892
0.000169808
0.000172301
0.000173516
0.000173515
0.000172298
0.000169803
0.000165886
0.000160307
0.000152705
0.000142444
0.000128488
0.000109489
8.61151e-05
6.30275e-05
4.35814e-05
3.10261e-05
2.82465e-05
1.88771e-05
2.11498e-05
3.03202e-05
3.4128e-05
5.10701e-05
7.47733e-05
0.000103164
0.000129567
0.000149771
0.000164379
0.000174759
0.000182121
0.000187297
0.000190815
0.000193001
0.000194049
0.000194047
0.000192995
0.000190805
0.000187284
0.000182104
0.000174738
0.000164354
0.000149744
0.000129538
0.000103133
7.47505e-05
5.10582e-05
3.41197e-05
3.03169e-05
2.11506e-05
2.31849e-05
3.19976e-05
3.75199e-05
5.74549e-05
8.50928e-05
0.000117696
0.000145082
0.000165469
0.000179946
0.000190003
0.00019691
0.000201589
0.00020466
0.000206516
0.00020739
0.000207388
0.00020651
0.000204649
0.000201573
0.00019689
0.000189981
0.000179921
0.000165441
0.000145051
0.000117662
8.50621e-05
5.74387e-05
3.75129e-05
3.19925e-05
2.31857e-05
2.49772e-05
3.33691e-05
4.08768e-05
6.34518e-05
9.50759e-05
0.000129632
0.000157009
0.000176941
0.000190857
0.000200332
0.000206664
0.000210815
0.000213447
0.000214992
0.000215704
0.000215702
0.000214985
0.000213436
0.000210799
0.000206645
0.000200309
0.000190832
0.000176914
0.00015698
0.000129603
9.50492e-05
6.34328e-05
4.08731e-05
3.33624e-05
2.49781e-05
2.65069e-05
3.44935e-05
4.39487e-05
6.87459e-05
0.000103745
0.000138943
0.000165992
0.000185241
0.000198431
0.000207228
0.000212957
0.000216598
0.00021883
0.000220098
0.00022067
0.000220668
0.000220092
0.000218819
0.000216584
0.00021294
0.000207207
0.000198408
0.000185217
0.000165966
0.000138917
0.000103718
6.87249e-05
4.39485e-05
3.44852e-05
2.65077e-05
2.77551e-05
3.54006e-05
4.6501e-05
7.31009e-05
0.000110652
0.000146027
0.000172587
0.000191129
0.000203601
0.000211748
0.000216923
0.000220113
0.000222003
0.000223043
0.0002235
0.000223498
0.000223037
0.000221994
0.000220101
0.000216907
0.00021173
0.000203581
0.000191108
0.000172564
0.000146002
0.000110625
7.30775e-05
4.64989e-05
3.53908e-05
2.77559e-05
2.8706e-05
3.60979e-05
4.8434e-05
7.63719e-05
0.000115747
0.000151122
0.000177209
0.000195141
0.000207007
0.000214614
0.000219336
0.000222166
0.00022379
0.000224655
0.000225025
0.000225023
0.00022465
0.000223783
0.000222156
0.000219323
0.000214598
0.00020699
0.000195122
0.000177189
0.000151099
0.000115719
7.63477e-05
4.84314e-05
3.60872e-05
2.87067e-05
2.93477e-05
3.65843e-05
4.97643e-05
7.85361e-05
0.000119082
0.000154412
0.000180144
0.000197635
0.000209069
0.000216293
0.000220698
0.00022328
0.000224723
0.00022547
0.000225782
0.000225781
0.000225466
0.000224717
0.000223272
0.000220688
0.000216281
0.000209056
0.00019762
0.000180127
0.000154392
0.000119055
7.85115e-05
4.97614e-05
3.65742e-05
2.93483e-05
2.9672e-05
3.68745e-05
5.04475e-05
7.96249e-05
0.000120729
0.000156024
0.000181568
0.000198829
0.00021004
0.000217066
0.000221308
0.000223764
0.000225116
0.000225803
0.000226087
0.000226086
0.000225801
0.000225111
0.000223759
0.000221301
0.000217058
0.00021003
0.000198818
0.000181555
0.000156006
0.000120704
7.96005e-05
5.0445e-05
3.68707e-05
2.96724e-05
2.96727e-05
3.68735e-05
5.04465e-05
7.96266e-05
0.000120727
0.000156022
0.000181566
0.000198827
0.000210038
0.000217064
0.000221306
0.000223762
0.000225113
0.0002258
0.000226084
0.000226084
0.000225799
0.00022511
0.000223758
0.000221301
0.000217058
0.000210031
0.000198819
0.000181556
0.000156007
0.000120705
7.96031e-05
5.04439e-05
3.68706e-05
2.96729e-05
2.935e-05
3.65912e-05
4.9762e-05
7.85409e-05
0.000119075
0.000154405
0.000180138
0.00019763
0.000209064
0.000216287
0.000220691
0.000223273
0.000224715
0.000225461
0.000225774
0.000225774
0.000225461
0.000224714
0.000223271
0.000220688
0.000216283
0.000209059
0.000197624
0.000180131
0.000154394
0.000119056
7.85188e-05
4.97586e-05
3.65811e-05
2.93497e-05
2.87099e-05
3.61097e-05
4.84299e-05
7.63787e-05
0.000115737
0.000151113
0.000177202
0.000195135
0.000207001
0.000214606
0.000219326
0.000222156
0.000223779
0.000224643
0.000225014
0.000225014
0.000224643
0.000223779
0.000222155
0.000219326
0.000214604
0.000206998
0.000195131
0.000177197
0.000151104
0.000115721
7.63587e-05
4.84266e-05
3.60988e-05
2.87091e-05
2.77603e-05
3.54163e-05
4.64922e-05
7.31093e-05
0.00011064
0.000146018
0.000172581
0.000191125
0.000203596
0.000211741
0.000216914
0.000220103
0.000221991
0.000223031
0.000223488
0.000223488
0.000223031
0.000221992
0.000220103
0.000216915
0.000211741
0.000203596
0.000191123
0.000172579
0.000146012
0.000110628
7.30932e-05
4.64907e-05
3.54059e-05
2.77592e-05
2.65131e-05
3.45103e-05
4.39091e-05
6.87452e-05
0.000103731
0.000138938
0.000165992
0.000185242
0.000198431
0.000207225
0.000212952
0.000216591
0.000218821
0.000220088
0.000220661
0.000220661
0.000220089
0.000218822
0.000216592
0.000212954
0.000207226
0.000198431
0.000185242
0.000165991
0.000138936
0.000103725
6.87362e-05
4.3921e-05
3.45015e-05
2.65117e-05
2.49841e-05
3.33856e-05
4.0836e-05
6.34563e-05
9.50728e-05
0.000129638
0.000157018
0.00017695
0.000190864
0.000200336
0.000206665
0.000210814
0.000213444
0.000214988
0.0002157
0.0002157
0.000214989
0.000213446
0.000210816
0.000206668
0.000200337
0.000190865
0.000176951
0.000157017
0.000129636
9.50677e-05
6.34479e-05
4.08469e-05
3.33785e-05
2.49825e-05
2.3192e-05
3.20126e-05
3.74886e-05
5.74699e-05
8.51155e-05
0.000117715
0.000145104
0.000165488
0.000179962
0.000190017
0.000196921
0.000201598
0.000204667
0.000206521
0.000207394