/*--------------------------------*- C++ -*----------------------------------*\
| =========                 |                                                 |
| \\      /  F ield         | OpenFOAM: The Open Source CFD Toolbox           |
|  \\    /   O peration     | Version:  2312                                  |
|   \\  /    A nd           | Website:  www.openfoam.com                      |
|    \\/     M anipulation  |                                                 |
\*---------------------------------------------------------------------------*/
FoamFile
{
    version     2.0;
    format      ascii;
    arch        "LSB;label=32;scalar=64";
    class       surfaceScalarField;
    location    "400";
    object      phi;
}
// * * * * * * * * * * * * * * * * * * * * * * * * * * * * * * * * * * * * * //

dimensions      [1 0 -1 0 0 0 0];

oriented        oriented;

internalField   nonuniform List<scalar> 
78300
(
9.85332e-06
0.00021912
0.00753042
0.00293031
0.00116744
0.00975015
0.00304976
0.00452447
0.0149934
0.00341307
0.00515478
0.0196069
0.0036836
0.00580743
0.0241922
0.00382679
0.0063735
0.0285277
0.00383192
0.00687178
0.0325438
0.00369742
0.00728149
0.0362278
0.00342286
0.0076024
0.0395567
0.00302687
0.00784666
0.0424795
0.00253326
0.0080304
0.044958
0.00196446
0.00816592
0.0469668
0.00134092
0.00826119
0.0484884
0.000681852
0.00832143
0.04951
5.22937e-06
0.00835065
0.0500229
-0.000671525
0.00835078
0.0500229
-0.00133085
0.00832167
0.04951
-0.00195489
0.00826163
0.0484885
-0.00252463
0.00816678
0.0469669
-0.00301937
0.00803142
0.0449581
-0.00341687
0.00784802
0.0424797
-0.00369334
0.0076041
0.0395569
-0.00383033
0.0072837
0.0362281
-0.0038273
0.00687356
0.0325441
-0.00368526
0.00637434
0.028528
-0.00341541
0.00580781
0.0241925
-0.00305317
0.00515562
0.0196071
-0.00293646
0.00452705
0.0149936
-1.01888e-05
0.00116152
0.00975026
0.000218713
0.00753049
0.00308801
0.00445093
0.00970189
0.00538119
0.00390174
0.0178622
0.00649884
0.0070186
0.0248763
0.00684784
0.00790236
0.0306891
0.00695183
0.0085093
0.0359471
0.00687319
0.00900209
0.0408121
0.00663344
0.00941787
0.045281
0.0062294
0.0097643
0.0493262
0.00566005
0.010039
0.0529265
0.00493912
0.0102449
0.0560572
0.00409322
0.0103926
0.0586944
0.00315167
0.010495
0.0608212
0.00214173
0.0105624
0.0624257
0.00108753
0.0106031
0.0634999
1.15227e-05
0.0106222
0.0640384
-0.00106472
0.0106225
0.0640385
-0.00211974
0.0106039
0.0635002
-0.00313104
0.0105639
0.0624261
-0.00407428
0.010497
0.0608217
-0.00492273
0.0103955
0.0586951
-0.00564645
0.0102483
0.0560579
-0.00621914
0.0100433
0.0529273
-0.00662632
0.00976884
0.0493271
-0.00686939
0.00942223
0.0452817
-0.00695116
0.00900548
0.0408127
-0.00684882
0.00851089
0.0359475
-0.00649916
0.0079022
0.0306894
-0.00537653
0.00701587
0.0248766
-0.00308774
0.00389988
0.0178625
0.00445091
0.00970176
0.00680665
0.00402005
0.0198908
0.00946193
0.00591376
0.0272595
0.0103021
0.00844146
0.0350641
0.0101214
0.00920339
0.0413173
0.00961241
0.00960544
0.0466425
0.00899711
0.00990866
0.051385
0.00831439
0.0101743
0.055679
0.00755313
0.0104149
0.0595467
0.00669951
0.0106211
0.0629772
0.00574927
0.0107853
0.065953
0.00471089
0.0109063
0.0684573
0.00360031
0.0109899
0.0704761
0.00243565
0.011044
0.071999
0.00123528
0.0110757
0.0730185
1.70303e-05
0.0110905
0.0735296
-0.00120154
0.011091
0.0735297
-0.00240302
0.0110773
0.0730188
-0.00356948
0.0110467
0.0719995
-0.00468261
0.0109938
0.0704768
-0.00572385
0.0109112
0.0684581
-0.00667774
0.0107914
0.065954
-0.00753514
0.0106281
0.0629782
-0.00830008
0.0104222
0.0595476
-0.00898645
0.0101815
0.0556798
-0.0096048
0.00991451
0.0513856
-0.0101167
0.00960956
0.0466428
-0.0102986
0.00920433
0.0413174
-0.00945946
0.00843989
0.035064
-0.00680456
0.00591259
0.0272592
0.00402274
0.0198902
0.00694499
0.00454434
0.027903
0.0100865
0.00677867
0.0368238
0.0110278
0.00896419
0.0445737
0.010897
0.0095783
0.050722
0.0103119
0.00987585
0.0559022
0.00955543
0.0100727
0.0604686
0.00871994
0.0102434
0.0645742
0.00782631
0.0104077
0.0682615
0.00687152
0.0105614
0.0715289
0.00585253
0.0106933
0.0743626
0.00477079
0.010797
0.0767476
0.00363417
0.0108718
0.0786711
0.00245434
0.0109215
0.0801227
0.00124495
0.0109512
0.0810948
2.04919e-05
0.0109652
0.0815823
-0.00120443
0.010966
0.0815824
-0.00241514
0.0109537
0.0810952
-0.00359701
0.0109256
0.0801233
-0.00473643
0.0108777
0.0786718
-0.00582156
0.0108044
0.0767485
-0.00684433
0.0107022
0.0743635
-0.0078029
0.0105714
0.0715298
-0.00870057
0.0104183
0.0682623
-0.00953931
0.0102534
0.0645747
-0.0102991
0.0100816
0.0604688
-0.0108868
0.00988265
0.0559022
-0.0110209
0.00958278
0.0507217
-0.0100824
0.00896605
0.0445732
-0.00694317
0.00678043
0.0368231
0.00454955
0.0279023
0.00789011
0.00479036
0.0360825
0.0108119
0.00729774
0.0460413
0.0114658
0.00910143
0.0537133
0.011216
0.00954714
0.0595387
0.0105801
0.00975164
0.0644756
0.00976979
0.00987828
0.0688569
0.00887029
0.00998796
0.0728
0.00791229
0.0101002
0.0763379
0.00690538
0.0102127
0.0794707
0.00585094
0.0103165
0.082187
0.00475074
0.0104033
0.0844735
0.00360909
0.0104694
0.0863181
0.00243369
0.0105152
0.0877105
0.00123446
0.0105435
0.0886432
2.27371e-05
0.0105574
0.0891109
-0.00118945
0.0105585
0.089111
-0.00239002
0.0105471
0.0886436
-0.00356776
0.0105212
0.0877111
-0.00471234
0.0104775
0.0863188
-0.00581608
0.0104135
0.0844743
-0.00687436
0.0103286
0.0821877
-0.00788535
0.0102262
0.0794712
-0.0088471
0.0101142
0.0763382
-0.00975049
0.0100017
0.0728
-0.0105642
0.00989086
0.0688566
-0.0112038
0.0097626
0.064475
-0.0114575
0.00955621
0.059538
-0.0108081
0.00910864
0.0537125
-0.00788956
0.00730363
0.0460404
0.00479693
0.0360817
0.00856778
0.00485394
0.0440573
0.0113213
0.00743741
0.0548745
0.0117528
0.00893711
0.0623474
0.0113816
0.00925818
0.0678622
0.0106908
0.00938696
0.0725598
0.00984629
0.00945906
0.0767611
0.00891477
0.00952352
0.0805545
0.00792583
0.00959629
0.0839601
0.00689248
0.00967566
0.086975
0.00582037
0.00975395
0.0895887
0.00471252
0.00982347
0.0917889
0.00357255
0.00987933
0.0935638
0.00240597
0.00991986
0.0949038
0.00122022
0.00994595
0.0958014
2.43256e-05
0.00995913
0.0962516
-0.00117209
0.00996071
0.0962517
-0.00235931
0.00995061
0.0958017
-0.00352817
0.00992758
0.0949043
-0.00467118
0.00988992
0.0935644
-0.00578269
0.0098368
0.0917894
-0.00685873
0.00976953
0.0895892
-0.00789616
0.00969298
0.0869752
-0.00888921
0.00961449
0.0839599
-0.00982472
0.00954173
0.0805541
-0.0106735
0.00947658
0.0767604
-0.0113686
0.00940321
0.0725588
-0.0117443
0.00927294
0.0678611
-0.0113173
0.00894996
0.0623462
-0.00856711
0.00744761
0.0548735
0.00486227
0.0440562
0.0090657
0.00475382
0.0517046
0.0116369
0.00727439
0.0631689
0.0119158
0.00851826
0.0703999
0.0114652
0.00875341
0.075648
0.0107361
0.00882882
0.0801373
0.00986945
0.00886133
0.0841732
0.00892049
0.00889216
0.0878275
0.00791591
0.00893445
0.0911114
0.00686958
0.00898694
0.0940192
0.00578887
0.00904321
0.09654
0.00467809
0.00909644
0.0986618
0.00354104
0.00914149
0.100374
0.00238235
0.00917575
0.101666
0.00120806
0.00919869
0.102532
2.53155e-05
0.00921088
0.102966
-0.00115791
0.00921285
0.102966
-0.00233365
0.00920455
0.102532
-0.00349466
0.00918541
0.101667
-0.0046348
0.00915478
0.100374
-0.00574913
0.009113
0.0986622
-0.00683383
0.00906266
0.0965401
-0.00788428
0.00900855
0.0940191
-0.00889312
0.00895739
0.091111
-0.00984652
0.00891562
0.0878267
-0.0107177
0.00888451
0.0841721
-0.0114517
0.00885132
0.0801359
-0.0119073
0.00877461
0.0756465
-0.0116329
0.00853718
0.0703984
-0.00906509
0.00728924
0.0631676
0.00476416
0.0517032
0.00942618
0.00450624
0.0588788
0.011827
0.00686022
0.0708196
0.0119936
0.00788437
0.0778059
0.0114938
0.00805851
0.0828239
0.0107431
0.00809909
0.087134
0.00986523
0.00810585
0.0910225
0.00890839
0.00811394
0.0945499
0.00789726
0.00813419
0.0977224
0.0068457
0.00816604
0.100533
0.00576183
0.00820439
0.102969
0.00465085
0.00824341
0.10502
0.00351694
0.0082783
0.106675
0.00236448
0.00830613
0.107925
0.00119871
0.00832559
0.108762
2.57751e-05
0.00833646
0.109182
-0.00114761
0.00833882
0.109182
-0.00231481
0.00833268
0.108762
-0.0034695
0.00831778
0.107925
-0.00460633
0.0082943
0.106675
-0.00572085
0.00826341
0.10502
-0.00680859
0.00822784
0.102969
-0.0078643
0.00819221
0.100532
-0.00887984
0.00816228
0.0977217
-0.00984125
0.00814307
0.0945488
-0.010724
0.00813538
0.0910211
-0.0114797
0.00812825
0.0871324
-0.0119846
0.00808658
0.082822
-0.0118226
0.00790981
0.077804
-0.00942535
0.00688024
0.0708179
0.00451911
0.0588771
0.00969466
0.00412327
0.0654405
0.0119386
0.00623857
0.0777365
0.0120164
0.00707008
0.0844922
0.0114835
0.00719844
0.0893114
0.0107215
0.00721713
0.0934673
0.00984003
0.007209
0.0972264
0.00888237
0.00720349
0.10064
0.00787116
0.00720945
0.103713
0.00681991
0.0072267
0.106436
0.005737
0.00725149
0.108797
0.00462812
0.0072791
0.110785
0.00349782
0.00730532
0.112389
0.00235057
0.00732728
0.113601
0.00119134
0.00734333
0.114413
2.56694e-05
0.00735286
0.11482
-0.00114046
0.00735563
0.11482
-0.00230098
0.00735158
0.114413
-0.0034503
0.00734084
0.113601
-0.00458337
0.00732398
0.11239
-0.00569555
0.00730242
0.110785
-0.00678218
0.00727891
0.108797
-0.00783753
0.00725752
0.106435
-0.00885312
0.00724278
0.103712
-0.00981552
0.00723859
0.100639
-0.0107019
0.00724498
0.0972248
-0.011469
0.00725325
0.0934654
-0.0120068
0.00723358
0.0893092
-0.0119334
0.00710229
0.0844899
-0.0096932
0.00626429
0.0777345
0.00413954
0.0654385
0.00989275
0.00362178
0.0712743
0.0119983
0.00544524
0.083835
0.0120049
0.00610496
0.0903839
0.0114473
0.00619759
0.0950343
0.0106788
0.00620303
0.0990583
0.00979803
0.00618777
0.102705
0.00884392
0.00617558
0.106021
0.00783716
0.00617342
0.109006
0.00679024
0.00618149
0.111652
0.00571141
0.00619696
0.113948
0.00460662
0.00621613
0.115881
0.00348074
0.00623558
0.117442
0.00233847
0.00625268
0.11862
0.00118471
0.00626583
0.11941
2.4909e-05
0.00627412
0.119806
-0.00113528
0.00627723
0.119806
-0.00229017
0.0062751
0.11941
-0.00343432
0.00626799
0.11862
-0.00456267
0.00625663
0.117442
-0.00567048
0.00624253
0.115881
-0.0067528
0.00622814
0.113948
-0.00780359
0.00621672
0.111652
-0.00881466
0.00621194
0.109005
-0.00977334
0.00621648
0.10602
-0.010659
0.00623022
0.102704
-0.0114324
0.00624605
0.0990563
-0.0119947
0.00623984
0.095032
-0.0119925
0.0061442
0.0903813
-0.00989081
0.00547717
0.0838327
0.00364219
0.0712721
0.0100367
0.00301937
0.0762846
0.0120242
0.00451221
0.0890399
0.0119734
0.00501619
0.0954111
0.0113962
0.00507983
0.0999217
0.0106237
0.00507738
0.103835
0.00974555
0.0050604
0.107388
0.00879717
0.00504648
0.11062
0.00779707
0.00504102
0.113531
0.00675672
0.00504417
0.116113
0.00568393
0.00505392
0.118353
0.00458462
0.00506745
0.12024
0.00346389
0.00508203
0.121763
0.00232666
0.00509548
0.122914
0.00117806
0.00510629
0.123685
2.34826e-05
0.00511359
0.124071
-0.00113144
0.00511699
0.124071
-0.00228102
0.00511642
0.123685
-0.00341983
0.00511221
0.122914
-0.00454271
0.00510512
0.121763
-0.00564469
0.00509651
0.12024
-0.00672062
0.00508842
0.118353
-0.00776457
0.00508345
0.116112
-0.00876865
0.00508429
0.11353
-0.00972142
0.00509288
0.110618
-0.0106042
0.005109
0.107386
-0.0113813
0.00512707
0.103833
-0.0119631
0.00512913
0.0999191
-0.0120181
0.00506249
0.0954082
-0.0100344
0.00455069
0.0890372
0.0030444
0.0762822
0.0101387
0.0023349
0.0803905
0.0120302
0.00346893
0.0932859
0.0119344
0.00382946
0.0995116
0.0113413
0.00386907
0.10391
0.0105654
0.00386245
0.107736
0.00969016
0.00384691
0.111211
0.00874772
0.00383459
0.114375
0.00775482
0.00382907
0.117227
0.00672168
0.00383048
0.119756
0.00565554
0.00383731
0.121952
0.00456221
0.00384746
0.123801
0.00344691
0.00385884
0.125295
0.00231474
0.00386971
0.126423
0.00117103
0.00387881
0.127179
2.13197e-05
0.00388535
0.127558
-0.00112863
0.00388894
0.127558
-0.00227314
0.00388955
0.127179
-0.00340661
0.0038875
0.126423
-0.00452371
0.00388347
0.125295
-0.00561929
0.00387861
0.123802
-0.00668816
0.00387452
0.121952
-0.00772449
0.00387318
0.119756
-0.00872103
0.00387651
0.117226
-0.00966746
0.00388591
0.114374
-0.010547
0.00390114
0.11121
-0.0113272
0.00391839
0.107734
-0.0119244
0.00392506
0.103908
-0.0120241
0.00388269
0.0995086
-0.0101364
0.00351398
0.093283
0.00236473
0.080388
0.010208
0.00158833
0.0835269
0.0120262
0.00234379
0.096519
0.0118968
0.00256998
0.102634
0.0112915
0.00258928
0.106949
0.0105127
0.00258104
0.110707
0.00963956
0.00256882
0.114125
0.00870211
0.00255996
0.117237
0.00771541
0.00255647
0.120043
0.00668869
0.0025582
0.122533
0.00562864
0.00256401
0.124695
0.00454085
0.00257241
0.126516
0.00343055
0.00258183
0.127987
0.00230303
0.00259097
0.129098
0.00116377
0.00259883
0.129843
1.84716e-05
0.00260478
0.130216
-0.00112703
0.00260848
0.130216
-0.0022669
0.00260994
0.129843
-0.00339543
0.0026094
0.129098
-0.00450714
0.00260746
0.127987
-0.00559677
0.002605
0.126517
-0.0066591
0.00260324
0.124695
-0.00768853
0.00260355
0.122533
-0.00867838
0.0026073
0.120043
-0.00961933
0.00261544
0.117237
-0.0104962
0.00262795
0.114124
-0.0112789
0.00264254
0.110705
-0.0118878
0.00265136
0.106946
-0.0120207
0.00262969
0.102631
-0.0102058
0.00239513
0.0965161
0.00162283
0.0835244
0.0102509
0.000800293
0.0856447
0.0120194
0.0011648
0.0986978
0.0118674
0.00126271
0.104737
0.0112536
0.00126435
0.108996
0.0104724
0.00125612
0.112709
0.00960036
0.00124832
0.116088
0.00866613
0.00124395
0.119166
0.00768372
0.00124356
0.121942
0.00666163
0.00124675
0.124405
0.00560608
0.00125268
0.126544
0.00452251
0.00126027
0.128347
0.00341615
0.00126847
0.129802
0.00229234
0.00127638
0.130902
0.00115669
0.00128327
0.131639
1.49708e-05
0.00128871
0.132009
-0.00112689
0.00129244
0.132009
-0.00226298
0.00129447
0.13164
-0.00338753
0.00129503
0.130903
-0.00449496
0.00129453
0.129803
-0.00557995
0.00129362
0.128348
-0.00663728
0.0012931
0.126545
-0.00766157
0.00129389
0.124406
-0.00864654
0.00129685
0.121942
-0.00958367
0.00130263
0.119166
-0.0104588
0.00131138
0.116088
-0.0112432
0.00132224
0.112708
-0.01186
0.00133166
0.108994
-0.0120148
0.00132809
0.104734
-0.0102491
0.00122179
0.0986949
0.000839065
0.0856423
0.0102713
-8.23167e-06
0.0867116
0.0120145
-4.04454e-05
0.099794
0.0118508
-6.75583e-05
0.105795
0.0112322
-8.19836e-05
0.110026
0.0104492
-8.92905e-05
0.113717
0.00957715
-9.20945e-05
0.117076
0.00864411
-9.15558e-05
0.120137
0.00766354
-8.84169e-05
0.122897
0.0066436
-8.33196e-05
0.125347
0.00559035
-7.6907e-05
0.127475
0.00450907
-6.97907e-05
0.129268
0.00340501
-6.25864e-05
0.130716
0.00228353
-5.57915e-05
0.13181
0.00115024
-4.98166e-05
0.132543
1.0949e-05
-4.49366e-05
0.132911
-0.00112845
-4.12612e-05
0.132911
-0.00226204
-3.87833e-05
0.132543
-0.00338403
-3.73367e-05
0.13181
-0.00448884
-3.66629e-05
0.130716
-0.00557112
-3.63898e-05
0.129269
-0.0066257
-3.60962e-05
0.127476
-0.00764725
-3.53407e-05
0.125348
-0.00862974
-3.37025e-05
0.122898
-0.00956496
-3.07875e-05
0.120137
-0.0104393
-2.62523e-05
0.117076
-0.0112247
-1.97133e-05
0.113716
-0.0118455
-1.05931e-05
0.110024
-0.0120112
2.41537e-06
0.105793
-0.01027
2.12458e-05
0.0997913
3.41428e-05
0.0867093
0.0102713
-0.000816507
0.0867114
0.0120138
-0.00124445
0.0997934
0.0118492
-0.00139594
0.105795
0.0112295
-0.00142606
0.110025
0.0104454
-0.00143222
0.113715
0.00957238
-0.00142991
0.117075
0.00863837
-0.00142446
0.120135
0.007657
-0.0014179
0.122895
0.0066365
-0.00141109
0.125345
0.00558297
-0.00140441
0.127473
0.00450176
-0.00139806
0.129266
0.00339807
-0.00139212
0.130714
0.00227725
-0.00138669
0.131808
0.00114485
-0.00138185
0.132541
6.55873e-06
-0.00137764
0.132909
-0.00113179
-0.00137411
0.132909
-0.00226439
-0.00137118
0.132541
-0.00338554
-0.00136879
0.131808
-0.00448971
-0.00136684
0.130715
-0.00557157
-0.00136527
0.129267
-0.00662595
-0.00136405
0.127474
-0.00764748
-0.00136323
0.125347
-0.00863009
-0.00136286
0.122896
-0.0095655
-0.00136283
0.120136
-0.01044
-0.00136259
0.117075
-0.0112255
-0.00136054
0.113715
-0.0118464
-0.00135197
0.110023
-0.0120121
-0.0013227
0.105792
-0.0102706
-0.00117928
0.0997909
-0.000771366
0.0867092
0.0102508
-0.00160377
0.0856441
0.0120173
-0.00241975
0.098696
0.0118626
-0.00269766
0.104734
0.0112458
-0.00274435
0.108992
0.0104614
-0.00274984
0.112705
0.00958624
-0.00274281
0.116084
0.00864917
-0.00273289
0.119162
0.0076644
-0.00272352
0.121937
0.00664065
-0.00271577
0.1244
0.00558434
-0.0027097
0.126539
0.00450094
-0.00270494
0.128341
0.00339569
-0.00270101
0.129797
0.00227383
-0.00269755
0.130896
0.00114075
-0.00269425
0.131633
2.00827e-06
-0.00269099
0.132003
-0.00113678
-0.00268764
0.132003
-0.00226998
-0.00268415
0.131634
-0.00339204
-0.00268052
0.130898
-0.00449756
-0.00267685
0.129798
-0.00558131
-0.00267337
0.128343
-0.00663804
-0.00267055
0.126541
-0.00766227
-0.00266899
0.124402
-0.00864758
-0.00266927
0.121939
-0.00958523
-0.00267165
0.119163
-0.0104609
-0.0026754
0.116084
-0.0112458
-0.00267755
0.112705
-0.0118628
-0.00266908
0.108991
-0.0120175
-0.00262271
0.104733
-0.0102509
-0.00235251
0.0986939
-0.00155687
0.0856422
0.0102078
-0.00234903
0.0835258
0.0120227
-0.00353893
0.0965163
0.0118889
-0.00394821
0.102629
0.0112787
-0.00401351
0.106943
0.0104948
-0.00401963
0.1107
0.0096167
-0.00400882
0.114118
0.00867467
-0.00399547
0.11723
0.00768422
-0.0039846
0.120036
0.00665489
-0.00397739
0.122525
0.00559362
-0.00397344
0.124686
0.00450612
-0.00397167
0.126508
0.00339762
-0.00397094
0.127978
0.0022732
-0.00397033
0.129089
0.00113806
-0.0039692
0.129834
-2.50971e-06
-0.00396717
0.130207
-0.00114311
-0.00396407
0.130207
-0.00227833
-0.00395979
0.129834
-0.00340286
-0.00395443
0.12909
-0.0045115
-0.00394825
0.12798
-0.00559909
-0.00394185
0.126509
-0.00666039
-0.00393622
0.124688
-0.0076897
-0.00393256
0.122527
-0.00868004
-0.00393222
0.120037
-0.00962183
-0.00393588
0.117231
-0.0104996
-0.00394274
0.114119
-0.0112829
-0.00394825
0.110701
-0.0118922
-0.00393868
0.106942
-0.0120249
-0.00387318
0.102628
-0.0102087
-0.00347118
0.0965145
-0.00230148
0.0835242
0.0101383
-0.00303165
0.0803891
0.0120254
-0.00457429
0.0932822
0.0119237
-0.00512315
0.0995057
0.0113241
-0.00521028
0.103903
0.0105415
-0.00521932
0.107727
0.00965952
-0.00520655
0.111202
0.00871109
-0.0051918
0.114366
0.00771325
-0.00518163
0.117217
0.00667671
-0.00517731
0.119746
0.00560902
-0.00517771
0.121941
0.0045161
-0.00518088
0.12379
0.00340315
-0.0051849
0.125283
0.00227504
-0.00518828
0.126411
0.00113671
-0.00519004
0.127167
-6.78667e-06
-0.00518963
0.127546
-0.00115033
-0.00518679
0.127546
-0.00228872
-0.00518144
0.127168
-0.00341691
-0.0051737
0.126412
-0.00452989
-0.005164
0.125285
-0.00562271
-0.00515327
0.123792
-0.00669016
-0.00514299
0.121943
-0.0077262
-0.00513524
0.119748
-0.00872332
-0.0051321
0.117219
-0.00967079
-0.00513501
0.114368
-0.0105515
-0.00514316
0.111204
-0.0113325
-0.00515035
0.107728
-0.0119302
-0.00513751
0.103903
-0.0120297
-0.00504968
0.099505
-0.0101401
-0.00450766
0.0932809
-0.00298454
0.0803877
0.010036
-0.0036317
0.0762829
0.0120184
-0.00549797
0.0890357
0.0119604
-0.00619788
0.0954042
0.0113753
-0.00631151
0.099913
0.0105947
-0.0063271
0.103826
0.00970859
-0.00631563
0.107377
0.00875303
-0.0063028
0.110609
0.00774716
-0.00629683
0.11352
0.00670286
-0.00629872
0.116101
0.00562824
-0.00630643
0.11834
0.00452944
-0.006317
0.120227
0.00341146
-0.00632762
0.12175
0.00227899
-0.00633625
0.1229
0.00113666
-0.00634164
0.123671
-1.06774e-05
-0.0063432
0.124057
-0.00115805
-0.00634065
0.124058
-0.00230046
-0.00633393
0.123671
-0.00343301
-0.00632313
0.122901
-0.00455096
-0.00630874
0.121752
-0.00564955
-0.00629193
0.120229
-0.00672363
-0.00627477
0.118343
-0.0077671
-0.00626006
0.116103
-0.00877174
-0.006251
0.113522
-0.00972561
-0.00624991
0.110611
-0.0106097
-0.0062561
0.107379
-0.0113878
-0.00626196
0.103827
-0.01197
-0.0062423
0.0999137
-0.0120245
-0.00612765
0.095404
-0.0100386
-0.00543396
0.0890347
-0.00358611
0.0762818
0.00989177
-0.00413032
0.0712724
0.0119916
-0.00628099
0.0838305
0.0119901
-0.00714761
0.0903766
0.0114236
-0.00729432
0.0950252
0.010646
-0.00732189
0.0990481
0.00975642
-0.00731712
0.102694
0.00879448
-0.00731139
0.106009
0.00778138
-0.00731444
0.108994
0.00673011
-0.00732688
0.11164
0.00564933
-0.0073456
0.113935
0.00454506
-0.00736633
0.115867
0.00342214
-0.0073855
0.117427
0.00228494
-0.00740058
0.118605
0.00113796
-0.00741029
0.119394
-1.40539e-05
-0.00741408
0.11979
-0.00116611
-0.00741184
0.11979
-0.0023132
-0.00740349
0.119395
-0.00345049
-0.00738901
0.118606
-0.00457336
-0.00736883
0.117429
-0.00567731
-0.0073441
0.11587
-0.00675742
-0.00731734
0.113937
-0.00780749
-0.00729224
0.111642
-0.00881891
-0.00727305
0.108997
-0.00977866
-0.00726323
0.106012
-0.0106655
-0.00726258
0.102697
-0.0114398
-0.00726177
0.0990498
-0.0120025
-0.00723006
0.0950263
-0.0119995
-0.00708208
0.0903769
-0.00989498
-0.00622109
0.0838299
-0.00408714
0.0712716
0.00969324
-0.00450981
0.0654384
0.0119313
-0.00689204
0.0777317
0.0120006
-0.00794608
0.0844849
0.0114583
-0.00813606
0.0893024
0.0106866
-0.00818423
0.0934573
0.00979593
-0.0081941
0.0972157
0.00883004
-0.00820232
0.100629
0.00781223
-0.00822065
0.103701
0.00675652
-0.00824904
0.106423
0.00567149
-0.00828279
0.108783
0.00456305
-0.00831662
0.110771
0.00343565
-0.0083461
0.112374
0.00229348
-0.0083686
0.113585
0.00114097
-0.00838298
0.114396
-1.68626e-05
-0.00838919
0.114803
-0.00117476
-0.00838724
0.114804
-0.00232739
-0.00837714
0.114397
-0.00346966
-0.00835864
0.113587
-0.00459703
-0.00833171
0.112376
-0.00570509
-0.00829742
0.110773
-0.00678923
-0.00825832
0.108786
-0.00784355
-0.00821879
0.106426
-0.00885929
-0.00818428
0.103704
-0.00982245
-0.00815969
0.100632
-0.0107098
-0.00814538
0.0972182
-0.0114775
-0.00813014
0.0934594
-0.0120152
-0.0080779
0.0893039
-0.0119405
-0.00788654
0.0844856
-0.00969686
-0.00683755
0.0777315
-0.00446974
0.0654379
0.00942439
-0.00475348
0.0588767
0.0118195
-0.00729612
0.0708151
0.0119778
-0.00856491
0.0777991
0.0114685
-0.00881328
0.0828157
0.010708
-0.00889515
0.0871249
0.00982089
-0.00893051
0.0910128
0.00885581
-0.00896188
0.0945395
0.00783808
-0.00900311
0.0977112
0.00678193
-0.00905323
0.10052
0.00569585
-0.00910628
0.102956
0.00458507
-0.00915573
0.105006
0.00345374
-0.00919683
0.10666
0.00230592
-0.00922712
0.107909
0.00114648
-0.00924626
0.108746
-1.91087e-05
-0.00925471
0.109165
-0.00118473
-0.00925311
0.109166
-0.00234435
-0.00924134
0.108747
-0.00349227
-0.00921882
0.107911
-0.00462354
-0.00918481
0.106662
-0.00573387
-0.00913969
0.105009
-0.00681901
-0.00908575
0.102959
-0.00787347
-0.00902779
0.100524
-0.0088888
-0.00897225
0.0977143
-0.00985073
-0.00892536
0.0945424
-0.010734
-0.00888841
0.0910155
-0.0114899
-0.00884789
0.0871272
-0.0119939
-0.00876217
0.0828174
-0.0118296
-0.00851232
0.0778001
-0.00942804
-0.0072481
0.0708152
-0.00471681
0.0588764
0.00906373
-0.00484957
0.0517025
0.0116301
-0.00745058
0.0631651
0.0119013
-0.0089703
0.0703942
0.0114415
-0.00930196
0.0756411
0.010703
-0.00943619
0.0801296
0.00982716
-0.00951069
0.0841648
0.00887018
-0.00957614
0.0878184
0.00785904
-0.00964844
0.0911015
0.00680816
-0.00972641
0.0940082
0.00572499
-0.00980247
0.0965279
0.00461405
-0.00986943
0.0986487
0.00347904
-0.00992258
0.10036
0.00232429
-0.00996033
0.101651
0.00115546
-0.00998366
0.102517
-2.08053e-05
-0.00999404
0.102951
-0.00119712
-0.00999276
0.102951
-0.00236611
-0.00997966
0.102518
-0.00352098
-0.00995364
0.101653
-0.00465593
-0.0099129
0.100362
-0.00576644
-0.00985655
0.0986514
-0.00684849
-0.00978605
0.0965309
-0.00789758
-0.00970589
0.0940114
-0.00890597
-0.00962348
0.0911046
-0.00985938
-0.00954621
0.0878215
-0.0107307
-0.00947587
0.0841676
-0.0114641
-0.00939647
0.080132
-0.0119181
-0.00925854
0.0756429
-0.0116403
-0.0089254
0.0703953
-0.00906714
-0.00740953
0.0631653
-0.00481629
0.0517025
0.00856646
-0.00478262
0.0440552
0.0113165
-0.00730446
0.0548716
0.0117409
-0.00912332
0.0623431
0.0113614
-0.00957719
0.0678568
0.0106614
-0.00978564
0.0725538
0.00980823
-0.00991457
0.0767545
0.00886886
-0.0100253
0.0805471
0.00787353
-0.0101376
0.0839517
0.00683554
-0.0102493
0.0869655
0.00576076
-0.0103517
0.0895781
0.00465229
-0.0104369
0.0917772
0.00351358
-0.0105013
0.0935512
0.00235005
-0.0105455
0.0948905
0.00116863
-0.0105718
0.0957877
-2.19787e-05
-0.0105837
0.0962377
-0.00121275
-0.0105826
0.0962381
-0.00239422
-0.0105688
0.0957887
-0.00355797
-0.0105402
0.0948921
-0.00469655
-0.0104939
0.0935533
-0.00580461
-0.010427
0.0917797
-0.00687835
-0.0103392
0.089581
-0.00791439
-0.0102338
0.0869686
-0.00890691
-0.0101185
0.0839547
-0.00984212
-0.0100025
0.08055
-0.0106905
-0.00988738
0.0767572
-0.0113845
-0.00975428
0.0725562
-0.0117577
-0.00954206
0.0678587
-0.0113265
-0.00908623
0.0623442
-0.00856913
-0.00727099
0.0548718
-0.00475222
0.0440555
0.00789105
-0.00453576
0.0360807
0.010811
-0.0067815
0.0460392
0.0114585
-0.00897692
0.0537105
0.011201
-0.00959685
0.059535
0.0105564
-0.00989692
0.0644712
0.00973771
-0.0100957
0.068852
0.00883054
-0.0102674
0.0727943
0.00786638
-0.0104323
0.0763313
0.00685472
-0.0105856
0.079463
0.00579741
-0.0107169
0.0821782
0.00469605
-0.0108197
0.0844638
0.00355489
-0.0108937
0.0863076
0.00238133
-0.0109424
0.0876994
0.00118517
-0.0109711
0.0886317
-2.2772e-05
-0.0109837
0.0890994
-0.0012307
-0.0109829
0.0890997
-0.00242708
-0.0109687
0.0886326
-0.00360065
-0.0109386
0.0877009
-0.00474184
-0.0108882
0.0863095
-0.00584279
-0.0108126
0.0844661
-0.00689917
-0.0107079
0.0821808
-0.00790908
-0.0105746
0.0794657
-0.00887035
-0.0104189
0.0763341
-0.00977355
-0.0102513
0.072797
-0.0105865
-0.0100768
0.0688546
-0.0112246
-0.00987445
0.0644736
-0.0114752
-0.00957048
0.0595368
-0.01082
-0.00894843
0.0537115
-0.00789271
-0.00675581
0.0460396
-0.00450738
0.0360811
0.00694962
-0.00401476
0.0279017
0.0100907
-0.0059149
0.0368226
0.0110274
-0.00844812
0.0445723
0.0108887
-0.00921201
0.05072
0.0102958
-0.00961618
0.0558997
0.00953083
-0.00992017
0.0604655
0.00868833
-0.0101874
0.0645704
0.00778846
-0.0104286
0.0682568
0.00682918
-0.0106351
0.0715232
0.00580703
-0.0107991
0.074356
0.0047235
-0.01092
0.0767403
0.00358642
-0.0110035
0.0786632
0.00240723
-0.0110573
0.0801144
0.00119931
-0.0110885
0.0810863
-2.31132e-05
-0.0111025
0.0815737
-0.00124548
-0.011102
0.0815739
-0.00245347
-0.0110869
0.081087
-0.00363273
-0.0110546
0.0801156
-0.00476974
-0.0109996
0.0786648
-0.00585288
-0.0109151
0.0767422
-0.00687432
-0.010793
0.0743581
-0.00783221
-0.0106277
0.0715255
-0.00872984
-0.0104197
0.0682591
-0.00956854
-0.0101774
0.0645727
-0.0103282
-0.00990868
0.0604677
-0.0109142
-0.00960267
0.0559017
-0.0110451
-0.00919502
0.0507216
-0.0101007
-0.00842825
0.0445732
-0.00695478
-0.00589473
0.0368232
-0.00399209
0.0279022
0.0068065
-0.00444487
0.0198902
0.0094699
-0.00391058
0.0272591
0.0103079
-0.00702272
0.0350637
0.0101216
-0.00790476
0.0413167
0.00960394
-0.00851044
0.0466415
0.00898201
-0.00900555
0.0513836
0.00829288
-0.00942259
0.055677
0.00752636
-0.00976986
0.0595439
0.00666814
-0.0100448
0.0629737
0.00571451
-0.0102512
0.0659488
0.00467385
-0.0103994
0.0684526
0.00356164
-0.0105021
0.0704712
0.00239598
-0.0105696
0.0719939
0.00119529
-0.0106102
0.0730132
-2.28553e-05
-0.010629
0.0735242
-0.00124105
-0.0106286
0.0735244
-0.00244169
-0.0106091
0.0730137
-0.00360713
-0.0105678
0.0719946
-0.00471902
-0.0104995
0.0704722
-0.00575932
-0.0103962
0.0684539
-0.00671229
-0.0102472
0.0659503
-0.00756942
-0.0100401
0.0629752
-0.0083344
-0.00976415
0.0595455
-0.00902141
-0.00941621
0.0556785
-0.00963924
-0.00899967
0.0513851
-0.0101507
-0.00850452
0.0466429
-0.0103297
-0.00789636
0.041318
-0.00948531
-0.00701024
0.0350647
-0.00681254
-0.00390047
0.0272598
-0.00442869
0.0198907
0.00309961
-0.000224386
0.0097016
0.00537742
-0.00116109
0.0178623
0.00650119
-0.00453486
0.0248764
0.00684855
-0.0051555
0.0306891
0.00694942
-0.00580518
0.0359468
0.00686646
-0.00637209
0.0408116
0.00662326
-0.00687217
0.0452801
0.00621583
-0.00728242
0.049325
0.00564279
-0.007603
0.0529249
0.00491846
-0.00784771
0.0560554
0.00406967
-0.00803225
0.0586924
0.00312558
-0.00816833
0.0608191
0.00211316
-0.00826378
0.0624237
0.00105651
-0.00832415
0.0634979
-2.15678e-05
-0.00835337
0.0640364
-0.00109952
-0.00835318
0.0640365
-0.00215572
-0.0083237
0.0634981
-0.00316765
-0.00826292
0.0624241
-0.00411097
-0.00816716
0.0608196
-0.00495884
-0.00803063
0.0586931
-0.00568187
-0.00784578
0.0560561
-0.00625358
-0.0076004
0.0529257
-0.00665978
-0.00727876
0.0493258
-0.00690185
-0.0068677
0.0452809
-0.00698281
-0.00636894
0.0408123
-0.0068785
-0.00580346
0.0359476
-0.00652847
-0.00515061
0.0306899
-0.00538995
-0.00453796
0.0248773
-0.00311233
-0.00115148
0.017863
-0.000220967
0.00970165
4.72321e-06
0.00753028
0.00293159
0.0097501
0.00304088
0.0149932
0.00340375
0.0196066
0.00367685
0.0241919
0.0038218
0.0285273
0.00382689
0.0325434
0.00369169
0.0362276
0.00341656
0.0395567
0.00301936
0.0424797
0.00252365
0.0449583
0.00195213
0.0469671
0.00132557
0.0484888
0.000663278
0.0495105
-1.66065e-05
0.0500235
-0.000696323
0.0500235
-0.0013582
0.0495105
-0.00198398
0.0484889
-0.00255445
0.0469673
-0.00304869
0.0449584
-0.00344415
0.0424799
-0.00371691
0.0395569
-0.00384871
0.0362278
-0.00383943
0.0325437
-0.00369164
0.0285276
-0.00341712
0.0241922
-0.00304969
0.0196069
-0.00294388
0.0149936
-7.84558e-06
0.00975053
0.00753057
0.000739793
0.000426039
0.00636458
0.00104231
0.000914017
0.00853361
0.000796516
0.00186644
0.0133728
0.000704339
0.00216899
0.0175301
0.000670372
0.00261578
0.0216104
0.000698121
0.00305685
0.0254431
0.000747827
0.00350161
0.0289925
0.000787242
0.00393395
0.0322545
0.00079417
0.00433871
0.0352111
0.000757002
0.00470365
0.0378131
0.000672417
0.00502031
0.0400223
0.0005435
0.005282
0.0418138
0.000377793
0.0054831
0.043171
0.000186134
0.00561917
0.0440825
-1.88573e-05
0.0056878
0.0445401
-0.000223364
0.00568753
0.0445399
-0.000413502
0.00561829
0.0440818
-0.000576599
0.00548152
0.04317
-0.000702087
0.00527996
0.0418124
-0.000782448
0.00501779
0.0400207
-0.000814713
0.00470067
0.0378113
-0.000802559
0.0043355
0.0352092
-0.000758229
0.003931
0.0322528
-0.000704681
0.00349953
0.028991
-0.000673919
0.00305521
0.025442
-0.00070415
0.00261293
0.0216098
-0.000789629
0.00216266
0.0175299
-0.00103128
0.00186225
0.013373
-0.000739784
0.000924784