/*--------------------------------*- C++ -*----------------------------------*\
| =========                 |                                                 |
| \\      /  F ield         | OpenFOAM: The Open Source CFD Toolbox           |
|  \\    /   O peration     | Version:  2312                                  |
|   \\  /    A nd           | Website:  www.openfoam.com                      |
|    \\/     M anipulation  |                                                 |
\*---------------------------------------------------------------------------*/
FoamFile
{
    version     2.0;
    format      ascii;
    arch        "LSB;label=32;scalar=64";
    class       volScalarField;
    location    "400";
    object      T;
}
// * * * * * * * * * * * * * * * * * * * * * * * * * * * * * * * * * * * * * //

dimensions      [0 0 0 1 0 0 0];

internalField   nonuniform List<scalar> 
27000
(
426.633
356.046
347.383
343.178
342.44
342.502
342.704
342.934
343.166
343.369
343.536
343.671
343.771
343.837
343.87
343.87
343.837
343.771
343.671
343.536
343.368
343.165
342.933
342.703
342.501
342.438
343.176
347.381
356.043
426.621
335.762
354.647
348.611
346.953
346.612
346.756
346.957
347.127
347.264
347.373
347.458
347.523
347.569
347.6
347.615
347.615
347.6
347.57
347.523
347.458
347.373
347.263
347.126
346.955
346.753
346.608
346.948
348.605
354.64
335.757
342.287
345.617
348.23
348.021
347.857
347.855
347.913
347.971
348.017
348.051
348.078
348.098
348.112
348.122
348.126
348.126
348.122
348.112
348.097
348.077
348.051
348.015
347.969
347.91
347.851
347.853
348.016
348.225
345.614
342.286
342.228
346.092
347.716
348.047
348.064
348.065
348.086
348.113
348.137
348.154
348.167
348.177
348.183
348.188
348.19
348.19
348.188
348.183
348.177
348.167
348.153
348.135
348.111
348.083
348.061
348.061
348.044
347.713
346.091
342.229
342.644
346.602
347.815
348.057
348.11
348.121
348.131
348.145
348.158
348.169
348.176
348.182
348.186
348.188
348.189
348.189
348.188
348.185
348.182
348.176
348.168
348.157
348.143
348.129
348.119
348.108
348.056
347.815
346.603
342.645
343.064
346.953
347.922
348.098
348.137
348.145
348.149
348.154
348.16
348.166
348.17
348.173
348.175
348.176
348.177
348.177
348.176
348.175
348.173
348.17
348.165
348.159
348.153
348.148
348.144
348.136
348.098
347.923
346.955
343.066
343.46
347.198
347.993
348.129
348.156
348.159
348.158
348.157
348.158
348.16
348.162
348.163
348.164
348.165
348.165
348.165
348.165
348.164
348.163
348.162
348.16
348.158
348.157
348.158
348.16
348.158
348.131
347.995
347.201
343.463
343.805
347.38
348.042
348.15
348.169
348.167
348.162
348.158
348.156
348.155
348.155
348.155
348.155
348.155
348.155
348.155
348.155
348.155
348.155
348.155
348.155
348.156
348.159
348.164
348.169
348.171
348.154
348.046
347.384
343.807
344.1
347.518
348.079
348.165
348.176
348.172
348.164
348.158
348.154
348.151
348.15
348.149
348.148
348.148
348.148
348.148
348.148
348.149
348.149
348.15
348.152
348.155
348.16
348.166
348.174
348.18
348.169
348.084
347.523
344.102
344.344
347.624
348.108
348.176
348.181
348.173
348.164
348.157
348.151
348.148
348.146
348.145
348.144
348.144
348.144
348.144
348.144
348.145
348.145
348.147
348.149
348.153
348.159
348.167
348.177
348.185
348.181
348.113
347.628
344.347
344.538
347.703
348.13
348.184
348.184
348.174
348.164
348.155
348.149
348.145
348.143
348.142
348.141
348.141
348.141
348.141
348.141
348.142
348.143
348.145
348.147
348.152
348.158
348.167
348.178
348.188
348.189
348.135
347.708
344.541
344.685
347.76
348.146
348.189
348.185
348.174
348.162
348.154
348.148
348.144
348.141
348.14
348.139
348.139
348.139
348.139
348.139
348.14
348.141
348.143
348.146
348.15
348.157
348.166
348.178
348.19
348.194
348.151
347.765
344.688
344.791
347.8
348.156
348.193
348.186
348.173
348.161
348.153
348.146
348.142
348.14
348.139
348.138
348.138
348.138
348.138
348.138
348.139
348.14
348.142
348.145
348.149
348.156
348.165
348.177
348.191
348.198
348.162
347.805
344.793
344.859
347.825
348.163
348.195
348.186
348.173
348.161
348.152
348.145
348.142
348.139
348.138
348.137
348.137
348.137
348.137
348.138
348.138
348.139
348.141
348.144
348.148
348.155
348.164
348.177
348.191
348.199
348.168
347.829
344.861
344.892
347.837
348.166
348.196
348.186
348.172
348.16
348.151
348.145
348.141
348.139
348.138
348.137
348.137
348.137
348.137
348.137
348.138
348.139
348.14
348.143
348.147
348.154
348.163
348.176
348.19
348.2
348.17
347.84
344.894
344.892
347.836
348.166
348.195
348.186
348.172
348.16
348.151
348.145
348.141
348.139
348.138
348.137
348.137
348.136
348.137
348.137
348.137
348.138
348.14
348.143
348.147
348.153
348.162
348.175
348.189
348.199
348.169
347.839
344.894
344.858
347.824
348.162
348.194
348.186
348.172
348.16
348.151
348.145
348.141
348.139
348.138
348.137
348.137
348.136
348.136
348.137
348.137
348.138
348.14
348.142
348.147
348.153
348.162
348.174
348.188
348.197
348.165
347.826
344.86
344.79
347.798
348.155
348.192
348.185
348.173
348.161
348.152
348.146
348.142
348.14
348.138
348.137
348.137
348.136
348.137
348.137
348.137
348.138
348.14
348.143
348.147
348.153
348.162
348.174
348.187
348.193
348.157
347.8
344.791
344.684
347.758
348.144
348.188
348.184
348.173
348.162
348.153
348.147
348.143
348.14
348.139
348.138
348.137
348.137
348.137
348.137
348.138
348.139
348.14
348.143
348.147
348.153
348.162
348.173
348.185
348.188
348.145
347.759
344.684
344.536
347.7
348.127
348.182
348.182
348.173
348.163
348.155
348.149
348.145
348.142
348.14
348.139
348.138
348.138
348.138
348.138
348.139
348.14
348.142
348.144
348.148
348.154
348.162
348.172
348.182
348.182
348.128
347.7
344.536
344.342
347.62
348.105
348.174
348.18
348.173
348.164
348.156
348.151
348.147
348.144
348.142
348.141
348.14
348.14
348.14
348.14
348.141
348.142
348.143
348.146
348.15
348.155
348.162
348.171
348.178
348.173
348.105
347.62
344.342
344.097
347.514
348.076
348.163
348.175
348.171
348.164
348.157
348.153
348.149
348.147
348.146
348.145
348.144
348.144
348.144
348.144
348.144
348.145
348.147
348.148
348.151
348.156
348.162
348.169
348.173
348.161
348.075
347.513
344.096
343.802
347.376
348.039
348.149
348.168
348.167
348.162
348.158
348.155
348.153
348.152
348.151
348.15
348.15
348.149
348.149
348.15
348.15
348.151
348.151
348.152
348.153
348.156
348.159
348.164
348.165
348.146
348.036
347.374
343.801
343.456
347.194
347.99
348.128
348.156
348.159
348.157
348.156
348.157
348.157
348.158
348.158
348.158
348.158
348.158
348.158
348.158
348.158
348.158
348.158
348.157
348.155
348.155
348.155
348.156
348.152
348.124
347.986
347.191
343.455
343.06
346.949
347.919
348.096
348.137
348.145
348.149
348.153
348.158
348.162
348.165
348.167
348.168
348.169
348.169
348.169
348.169
348.168
348.167
348.165
348.162
348.157
348.152
348.146
348.142
348.132
348.091
347.914
346.944
343.058
342.64
346.598
347.813
348.056
348.111
348.122
348.131
348.144
348.155
348.164
348.17
348.174
348.177
348.179
348.179
348.18
348.179
348.177
348.175
348.171
348.165
348.155
348.143
348.13
348.119
348.107
348.051
347.806
346.592
342.637
342.223
346.087
347.714
348.048
348.066
348.066
348.086
348.111
348.133
348.149
348.16
348.168
348.174
348.177
348.179
348.179
348.178
348.174
348.169
348.161
348.15
348.134
348.112
348.086
348.065
348.063
348.043
347.707
346.079
342.219
342.281
345.613
348.231
348.025
347.861
347.857
347.913
347.969
348.012
348.044
348.069
348.088
348.101
348.11
348.115
348.115
348.111
348.102
348.089
348.071
348.046
348.014
347.971
347.915
347.858
347.861
348.022
348.224
345.602
342.274
335.75
354.648
348.619
346.961
346.617
346.758
346.957
347.124
347.259
347.366
347.45
347.513
347.559
347.589
347.604
347.605
347.59
347.561
347.515
347.452
347.369
347.262
347.127
346.96
346.761
346.621
346.964
348.62
354.638
335.733
426.643
356.058
347.392
343.183
342.442
342.503
342.702
342.931
343.162
343.364
343.532
343.666
343.766
343.832
343.865
343.865
343.833
343.767
343.667
343.533
343.366
343.164
342.933
342.705
342.506
342.446
343.188
347.399
356.064
426.632
447.584
363.326
347.578
339.112
336.571
336.016
336.018
336.186
336.416
336.644
336.843
337
337.117
337.195
337.234
337.234
337.195
337.118
337.001
336.844
336.646
336.418
336.189
336.021
336.02
336.575
339.116
347.581
363.328
447.606
332.358
361.271
352.254
346.929
344.105
343.283
343.316
343.593
343.897
344.166
344.383
344.549
344.668
344.744
344.782
344.782
344.745
344.669
344.55
344.385
344.169
343.901
343.598
343.322
343.288
344.111
346.935
352.261
361.284
332.372
337.062
343.717
349.438
348.845
347.571
346.875
346.691
346.736
346.846
346.956
347.047
347.117
347.166
347.198
347.214
347.214
347.199
347.168
347.119
347.05
346.96
346.851
346.741
346.696
346.882
347.577
348.852
349.445
343.723
337.063
336.072
341.913
346.418
347.993
348.068
347.856
347.725
347.698
347.723
347.761
347.797
347.826
347.846
347.86
347.867
347.867
347.861
347.848
347.828
347.799
347.764
347.727
347.703
347.73
347.861
348.073
347.997
346.42
341.913
336.07
336.465
342.361
346.057
347.524
347.971
348.038
348.016
348.001
348.004
348.018
348.034
348.047
348.058
348.064
348.068
348.068
348.065
348.059
348.049
348.036
348.021
348.007
348.004
348.019
348.041
347.973
347.525
346.056
342.358
336.462
336.836
343.173
346.379
347.515
347.924
348.06
348.096
348.103
348.108
348.115
348.123
348.13
348.136
348.14
348.142
348.142
348.141
348.137
348.132
348.125
348.117
348.11
348.105
348.097
348.061
347.924
347.513
346.376
343.169
336.832
337.236
343.829
346.707
347.623
347.947
348.074
348.123
348.142
348.15
348.156
348.161
348.165
348.168
348.17
348.172
348.172
348.171
348.169
348.166
348.162
348.157
348.151
348.142
348.123
348.073
347.944
347.619
346.702
343.824
337.231
337.647
344.33
346.949
347.725
347.988
348.094
348.14
348.16
348.169
348.174
348.177
348.179
348.181
348.182
348.183
348.183
348.182
348.181
348.18
348.177
348.174
348.169
348.159
348.138
348.091
347.984
347.719
346.943
344.324
337.642
338.018
344.717
347.123
347.801
348.024
348.114
348.153
348.171
348.179
348.182
348.184
348.185
348.185
348.186
348.186
348.186
348.186
348.185
348.184
348.183
348.181
348.177
348.169
348.15
348.109
348.019
347.794
347.116
344.711
338.013
338.336
345.014
347.25
347.856
348.052
348.13
348.163
348.178
348.184
348.186
348.186
348.186
348.186
348.186
348.185
348.185
348.185
348.185
348.185
348.185
348.184
348.182
348.175
348.16
348.125
348.047
347.849
347.243
345.007
338.331
338.601
345.241
347.343
347.897
348.074
348.142
348.171
348.182
348.186
348.187
348.186
348.185
348.185
348.184
348.184
348.184
348.184
348.184
348.185
348.185
348.185
348.184
348.179
348.166
348.137
348.067
347.89
347.335
345.234
338.597
338.814
345.41
347.411
347.926
348.089
348.151
348.176
348.185
348.187
348.187
348.186
348.184
348.183
348.182
348.182
348.182
348.182
348.183
348.183
348.184
348.185
348.185
348.182
348.171
348.145
348.083
347.919
347.403
345.403
338.81
338.974
345.531
347.458
347.947
348.099
348.156
348.178
348.186
348.187
348.186
348.185
348.183
348.182
348.181
348.18
348.18
348.18
348.181
348.182
348.183
348.185
348.185
348.183
348.174
348.151
348.093
347.94
347.45
345.525
338.969
339.08
345.61
347.487
347.959
348.105
348.159
348.179
348.186
348.187
348.185
348.183
348.181
348.18
348.179
348.179
348.179
348.179
348.18
348.181
348.182
348.184
348.185
348.183
348.176
348.155
348.1
347.953
347.481
345.603
339.076
339.132
345.648
347.501
347.964
348.107
348.16
348.179
348.185
348.186
348.184
348.182
348.18
348.179
348.178
348.178
348.178
348.178
348.179
348.18
348.181
348.183
348.184
348.183
348.176
348.156
348.103
347.959
347.496
345.642
339.129
339.132
345.647
347.5
347.963
348.106
348.158
348.178
348.184
348.184
348.183
348.181
348.179
348.178
348.177
348.177
348.177
348.177
348.178
348.179
348.181
348.182
348.184
348.183
348.176
348.155
348.102
347.959
347.496
345.643
339.129
339.079
345.608
347.484
347.955
348.101
348.154
348.175
348.182
348.183
348.181
348.18
348.178
348.177
348.176
348.176
348.176
348.177
348.178
348.179
348.18
348.182
348.183
348.181
348.174
348.153
348.099
347.952
347.481
345.604
339.076
338.973
345.529
347.453
347.94
348.092
348.149
348.171
348.179
348.181
348.18
348.179
348.178
348.177
348.176
348.176
348.176
348.177
348.178
348.179
348.18
348.181
348.182
348.18
348.171
348.149
348.091
347.938
347.45
345.526
338.97
338.813
345.406
347.404
347.918
348.079
348.141
348.166
348.176
348.179
348.179
348.179
348.178
348.177
348.177
348.177
348.177
348.178
348.178
348.179
348.18
348.181
348.181
348.178
348.167
348.142
348.08
347.917
347.402
345.404
338.811
338.599
345.236
347.334
347.886
348.062
348.13
348.159
348.172
348.177
348.178
348.179
348.178
348.178
348.178
348.178
348.179
348.179
348.18
348.18
348.181
348.181
348.179
348.175
348.162
348.133
348.064
347.887
347.334
345.235
338.598
338.333
345.008
347.24
347.844
348.039
348.117
348.151
348.167
348.174
348.177
348.178
348.179
348.179
348.18
348.18
348.181
348.181
348.181
348.181
348.181
348.18
348.177
348.17
348.155
348.12
348.042
347.846
347.241
345.008
338.332
338.015
344.71
347.112
347.787
348.01
348.1
348.141
348.16
348.169
348.174
348.177
348.178
348.18
348.181
348.181
348.182
348.182
348.182
348.181
348.18
348.178
348.173
348.165
348.146
348.105
348.015
347.791
347.114
344.711
338.015
337.643
344.322
346.936
347.71
347.973
348.081
348.129
348.15
348.161
348.167
348.171
348.175
348.177
348.179
348.18
348.18
348.18
348.179
348.177
348.175
348.171
348.166
348.156
348.134
348.087
347.98
347.716
346.941
344.325
337.644
337.232
343.821
346.695
347.609
347.933
348.062
348.114
348.134
348.144
348.151
348.157
348.163
348.166
348.169
348.171
348.171
348.17
348.168
348.165
348.161
348.155
348.149
348.14
348.12
348.069
347.941
347.617
346.701
343.825
337.233
336.831
343.165
346.367
347.502
347.912
348.051
348.089
348.099
348.105
348.114
348.123
348.131
348.137
348.141
348.144
348.144
348.142
348.139
348.133
348.126
348.117
348.11
348.104
348.095
348.059
347.921
347.512
346.376
343.17
336.834
336.46
342.353
346.046
347.513
347.962
348.033
348.014
348.001
348.006
348.02
348.037
348.051
348.062
348.069
348.072
348.073
348.069
348.063
348.053
348.039
348.023
348.009
348.005
348.019
348.04
347.972
347.525
346.059
342.362
336.465
336.068
341.906
346.408
347.985
348.065
347.856
347.728
347.703
347.728
347.767
347.804
347.833
347.854
347.867
347.874
347.874
347.868
347.855
347.834
347.805
347.769
347.73
347.705
347.731
347.86
348.072
347.997
346.424
341.92
336.076
337.059
343.71
349.431
348.842
347.573
346.881
346.698
346.745
346.855
346.965
347.057
347.127
347.177
347.209
347.224
347.224
347.209
347.177
347.127
347.057
346.966
346.855
346.744
346.697
346.88
347.574
348.849
349.447
343.731
337.073
332.358
361.268
352.252
346.932
344.111
343.29
343.325
343.602
343.907
344.176
344.394
344.56
344.679
344.756
344.794
344.794
344.756
344.679
344.559
344.393
344.175
343.906
343.601
343.322
343.286
344.106
346.928
352.256
361.289
332.384
447.586
363.33
347.585
339.12
336.578
336.022
336.024
336.193
336.423
336.653
336.851
337.008
337.125
337.203
337.242
337.242
337.203
337.125
337.007
336.85
336.651
336.422
336.191
336.022
336.019
336.573
339.113
347.578
363.328
447.614
445.776
362.436
346.82
337.74
334.496
333.452
333.169
333.143
333.212
333.301
333.387
333.462
333.522
333.563
333.583
333.583
333.561
333.52
333.46
333.384
333.297
333.207
333.138
333.164
333.448
334.494
337.741
346.824
362.444
445.803
331.953
360.406
352.529
346.758
342.822
341.014
340.464
340.484
340.714
340.989
341.245
341.457
341.617
341.723
341.776
341.775
341.721
341.614
341.453
341.24
340.984
340.708
340.478
340.459
341.012
342.822
346.762
352.536
360.417
331.967
335.978
343.293
349.607
349.183
347.222
345.707
345.026
344.898
345.013
345.195
345.37
345.514
345.62
345.689
345.722
345.721
345.686
345.616
345.509
345.365
345.189
345.007
344.893
345.024
345.707
347.226
349.19
349.617
343.304
335.988
333.85
340.135
345.382
347.821
348.027
347.542
347.151
346.989
346.978
347.033
347.103
347.165
347.212
347.243
347.258
347.257
347.241
347.209
347.161
347.099
347.029
346.975
346.987
347.152
347.547
348.035
347.831
345.394
340.146
333.859
333.797
339.663
344.072
346.703
347.713
347.876
347.798
347.72
347.692
347.701
347.725
347.751
347.772
347.786
347.792
347.792
347.784
347.77
347.748
347.723
347.699
347.691
347.721
347.802
347.883
347.722
346.714
344.083
339.672
333.803
333.956
340.15
344.214
346.519
347.519
347.869
347.955
347.96
347.954
347.957
347.967
347.978
347.989
347.996
347.999
347.999
347.995
347.987
347.977
347.966
347.957
347.956
347.963
347.961
347.877
347.528
346.53
344.223
340.157
333.96
334.128
340.771
344.752
346.71
347.525
347.863
347.994
348.04
348.056
348.064
348.071
348.078
348.084
348.088
348.09
348.09
348.088
348.084
348.078
348.071
348.065
348.058
348.044
348
347.87
347.533
346.718
344.759
340.776
334.132
334.319
341.346
345.251
346.941
347.605
347.889
348.016
348.073
348.099
348.113
348.121
348.126
348.131
348.134
348.135
348.135
348.133
348.131
348.127
348.121
348.114
348.102
348.077
348.021
347.895
347.612
346.948
345.256
341.35
334.321
334.518
341.849
345.631
347.13
347.691
347.928
348.038
348.094
348.122
348.137
348.146
348.151
348.155
348.157
348.158
348.158
348.157
348.155
348.152
348.147
348.139
348.125
348.097
348.043
347.932
347.697
347.135
345.635
341.853
334.521
334.711
342.275
345.916
347.271
347.761
347.964
348.06
348.11
348.137
348.151
348.16
348.164
348.167
348.169
348.169
348.169
348.169
348.167
348.165
348.16
348.153
348.139
348.113
348.063
347.967
347.765
347.274
345.92
342.278
334.714
334.883
342.62
346.128
347.374
347.813
347.993
348.079
348.123
348.147
348.161
348.168
348.172
348.174
348.175
348.176
348.176
348.175
348.174
348.172
348.168
348.161
348.149
348.125
348.081
347.995
347.816
347.376
346.131
342.623
334.885
335.027
342.888
346.283
347.448
347.852
348.016
348.094
348.134
348.156
348.167
348.173
348.177
348.178
348.179
348.18
348.18
348.179
348.178
348.177
348.173
348.167
348.156
348.135
348.095
348.017
347.854
347.45
346.286
342.891
335.029
335.139
343.082
346.393
347.5
347.88
348.034
348.106
348.143
348.162
348.172
348.178
348.18
348.182
348.182
348.182
348.182
348.182
348.181
348.18
348.177
348.172
348.162
348.142
348.106
348.034
347.881
347.501
346.394
343.084
335.141
335.216
343.208
346.462
347.534
347.899
348.046
348.115
348.149
348.167
348.176
348.181
348.183
348.184
348.184
348.184
348.184
348.184
348.183
348.182
348.18
348.175
348.166
348.148
348.114
348.045
347.899
347.535
346.464
343.21
335.218
335.257
343.27
346.497
347.553
347.91
348.054
348.121
348.154
348.171
348.18
348.184
348.186
348.186
348.186
348.186
348.186
348.186
348.185
348.184
348.182
348.178
348.169
348.152
348.118
348.052
347.909
347.552
346.498
343.272
335.259
335.259
343.272
346.5
347.556
347.913
348.057
348.124
348.157
348.174
348.182
348.186
348.188
348.188
348.188
348.188
348.188
348.187
348.187
348.186
348.183
348.179
348.171
348.154
348.12
348.054
347.911
347.554
346.5
343.274
335.26
335.221
343.214
346.471
347.544
347.909
348.055
348.123
348.157
348.175
348.183
348.187
348.189
348.19
348.19
348.189
348.189
348.189
348.188
348.187
348.184
348.18
348.171
348.153
348.12
348.052
347.906
347.542
346.47
343.215
335.221
335.146
343.092
346.406
347.516
347.896
348.049
348.12
348.155
348.174
348.183
348.187
348.19
348.19
348.191
348.19
348.19
348.189
348.188
348.187
348.184
348.179
348.17
348.151
348.115
348.044
347.892
347.512
346.405
343.092
335.146
335.038
342.902
346.303
347.469
347.873
348.036
348.112
348.151
348.171
348.181
348.186
348.189
348.19
348.19
348.19
348.19
348.189
348.188
348.186
348.183
348.177
348.166
348.146
348.107
348.031
347.868
347.465
346.3
342.901
335.037
334.896
342.639
346.153
347.4
347.839
348.017
348.101
348.143
348.165
348.177
348.183
348.186
348.188
348.189
348.189
348.188
348.187
348.186
348.183
348.179
348.172
348.16
348.138
348.095
348.012
347.834
347.395
346.149
342.637
334.895
334.727
342.297
345.945
347.302
347.791
347.991
348.084
348.131
348.156
348.169
348.176
348.18
348.182
348.184
348.184
348.183
348.182
348.18
348.176
348.172
348.164
348.151
348.126
348.078
347.985
347.785
347.296
345.941
342.294
334.725
334.537
341.875
345.664
347.164
347.724
347.956
348.063
348.115
348.141
348.154
348.162
348.167
348.17
348.172
348.173
348.173
348.171
348.168
348.163
348.158
348.149
348.136
348.109
348.057
347.95
347.717
347.158
345.659
341.871
334.535
334.341
341.376
345.286
346.978
347.639
347.917
348.039
348.093
348.116
348.128
348.136
348.142
348.147
348.15
348.151
348.15
348.148
348.144
348.138
348.131
348.123
348.111
348.087
348.033
347.911
347.632
346.972
345.28
341.372
334.337
334.154
340.804
344.79
346.747
347.557
347.888
348.013
348.055
348.069
348.076
348.084
348.092
348.099
348.104
348.106
348.105
348.102
348.096
348.088
348.079
348.071
348.063
348.049
348.007
347.882
347.551
346.741
344.784
340.798
334.15
333.984
340.186
344.253
346.556
347.546
347.887
347.967
347.968
347.962
347.966
347.977
347.991
348.002
348.011
348.014
348.013
348.008
347.999
347.986
347.971
347.959
347.956
347.962
347.961
347.881
347.54
346.549
344.247
340.181
333.979
333.828
339.702
344.111
346.733
347.729
347.882
347.798
347.719
347.693
347.705
347.732
347.761
347.784
347.799
347.806
347.805
347.797
347.78
347.756
347.726
347.698
347.686
347.713
347.792
347.876
347.724
346.727
344.105
339.696
333.823
333.886
340.177
345.416
347.836
348.025
347.53
347.137
346.978
346.973
347.033
347.108
347.173
347.222
347.254
347.27
347.269
347.252
347.218
347.167
347.101
347.026
346.966
346.972
347.131
347.525
348.02
347.83
345.409
340.169
333.88
336.018
343.333
349.62
349.17
347.196
345.678
345.003
344.882
345.004
345.193
345.372
345.518
345.626
345.696
345.73
345.729
345.694
345.622
345.513
345.366
345.186
344.997
344.875
344.998
345.674
347.193
349.166
349.613
343.322
336.01
332.017
360.413
352.502
346.717
342.784
340.985
340.444
340.472
340.707
340.987
341.245
341.458
341.619
341.725
341.778
341.778
341.724
341.616
341.454
341.24
340.981
340.702
340.467
340.439
340.982
342.782
346.718
352.501
360.404
331.996
445.748
362.375
346.763
337.697
334.468
333.436
333.16
333.139
333.211
333.302
333.389
333.465
333.525
333.566
333.586
333.586
333.565
333.523
333.462
333.386
333.298
333.206
333.134
333.156
333.432
334.466
337.699
346.769
362.385
445.736
442.039
360.944
345.979
336.998
333.524
332.193
331.694
331.53
331.509
331.536
331.575
331.613
331.646
331.669
331.682
331.682
331.671
331.648
331.617
331.579
331.54
331.514
331.535
331.698
332.196
333.524
336.995
345.971
360.93
441.969
331.378
358.87
351.668
346.086
341.952
339.731
338.786
338.521
338.566
338.727
338.911
339.076
339.208
339.297
339.343
339.344
339.299
339.211
339.081
338.916
338.733
338.572
338.526
338.789
339.731
341.948
346.077
351.651
358.838
331.345
335.478
342.725
348.963
348.666
346.588
344.663
343.515
343.04
342.969
343.088
343.267
343.441
343.581
343.678
343.727
343.728
343.68
343.585
343.445
343.272
343.094
342.975
343.044
343.515
344.659
346.579
348.65
348.939
342.698
335.457
332.833
339.261
344.62
347.315
347.65
346.987
346.303
345.922
345.812
345.853
345.952
346.055
346.141
346.2
346.23
346.231
346.202
346.144
346.059
345.956
345.857
345.815
345.923
346.299
346.979
347.636
347.295
344.597
339.239
332.818
332.41
338.232
342.767
345.811
347.255
347.559
347.421
347.248
347.158
347.144
347.172
347.213
347.252
347.28
347.295
347.295
347.281
347.254
347.215
347.174
347.145
347.157
347.244
347.414
347.548
347.239
345.792
342.749
338.217
332.401
332.384
338.332
342.434
345.279
346.908
347.557
347.714
347.707
347.677
347.665
347.671
347.688
347.705
347.719
347.727
347.727
347.72
347.706
347.689
347.672
347.664
347.674
347.702
347.706
347.545
346.894
345.265
342.421
338.323
332.378
332.45
338.741
342.752
345.41
346.883
347.532
347.781
347.86
347.877
347.882
347.887
347.896
347.905
347.913
347.917
347.917
347.913
347.905
347.896
347.886
347.88
347.874
347.854
347.773
347.522
346.872
345.399
342.743
338.736
332.447
332.546
339.183
343.236
345.754
347.01
347.567
347.814
347.918
347.96
347.977
347.987
347.995
348.001
348.006
348.008
348.008
348.006
348.001
347.994
347.985
347.975
347.956
347.912
347.807
347.559
347.001
345.747
343.231
339.18
332.544
332.656
339.593
343.705
346.083
347.158
347.629
347.847
347.95
348
348.024
348.037
348.044
348.05
348.053
348.055
348.055
348.053
348.049
348.043
348.035
348.021
347.996
347.946
347.842
347.623
347.153
346.079
343.703
339.591
332.655
332.767
339.953
344.103
346.34
347.285
347.691
347.88
347.974
348.023
348.048
348.062
348.071
348.075
348.078
348.08
348.08
348.078
348.075
348.069
348.061
348.046
348.02
347.971
347.876
347.687
347.282
346.337
344.102
339.952
332.766
332.87
340.258
344.421
346.53
347.382
347.741
347.908
347.992
348.038
348.063
348.076
348.084
348.089
348.091
348.092
348.092
348.091
348.088
348.083
348.075
348.061
348.036
347.99
347.906
347.739
347.381
346.529
344.42
340.258
332.869
332.957
340.504
344.661
346.666
347.452
347.778
347.929
348.006
348.048
348.071
348.084
348.091
348.095
348.097
348.098
348.098
348.097
348.095
348.091
348.083
348.07
348.047
348.005
347.928
347.777
347.452
346.667
344.661
340.504
332.957
333.025
340.689
344.832
346.76
347.5
347.803
347.943
348.015
348.054
348.076
348.088
348.094
348.098
348.1
348.1
348.1
348.1
348.098
348.094
348.088
348.076
348.055
348.016
347.944
347.804
347.501
346.761
344.832
340.689
333.026
333.072
340.812
344.941
346.818
347.528
347.818
347.952
348.02
348.058
348.078
348.089
348.095
348.099
348.1
348.101
348.101
348.1
348.099
348.096
348.09
348.079
348.059
348.022
347.954
347.82
347.53
346.819
344.942
340.812
333.072
333.094
340.873
344.992
346.843
347.541
347.824
347.955
348.022
348.058
348.078
348.089
348.095
348.098
348.1
348.1
348.1
348.1
348.098
348.096
348.09
348.079
348.06
348.024
347.957
347.827
347.543
346.846
344.994
340.874
333.095
333.093
340.871
344.989
346.84
347.538
347.822
347.952
348.02
348.056
348.076
348.087
348.093
348.097
348.098
348.099
348.099
348.099
348.097
348.094
348.089
348.078
348.058
348.022
347.956
347.825
347.541
346.844
344.992
340.872
333.093
333.066
340.805
344.933
346.809
347.52
347.811
347.945
348.014
348.052
348.073
348.085
348.091
348.094
348.096
348.097
348.097
348.097
348.095
348.092
348.086
348.075
348.055
348.017
347.949
347.815
347.524
346.813
344.936
340.807
333.068
333.016
340.677
344.819
346.746
347.486
347.791
347.932
348.005
348.045
348.068
348.08
348.087
348.091
348.093
348.094
348.094
348.094
348.092
348.089
348.082
348.07
348.048
348.009
347.936
347.795
347.491
346.751
344.822
340.68
333.018
332.944
340.488
344.642
346.647
347.433
347.761
347.914
347.993
348.036
348.061
348.074
348.082
348.086
348.088
348.089
348.09
348.089
348.087
348.083
348.076
348.063
348.039
347.996
347.918
347.765
347.438
346.652
344.647
340.492
332.947
332.853
340.237
344.397
346.505
347.359
347.72
347.889
347.977
348.024
348.05
348.065
348.073
348.078
348.08
348.081
348.082
348.081
348.078
348.074
348.066
348.052
348.026
347.98
347.893
347.724
347.364
346.511
344.402
340.242
332.857
332.746
339.928
344.075
346.31
347.258
347.667
347.86
347.957
348.008
348.035
348.05
348.058
348.063
348.066
348.067
348.067
348.066
348.063
348.059
348.051
348.037
348.01
347.959
347.863
347.671
347.263
346.316
344.08
339.933
332.751
332.631
339.563
343.672
346.049
347.128
347.603
347.826
347.933
347.985
348.01
348.023
348.031
348.036
348.039
348.041
348.041
348.04
348.037
348.032
348.024
348.011
347.986
347.935
347.829
347.607
347.133
346.055
343.679
339.569
332.636
332.517
339.149
343.199
345.717
346.977
347.541
347.794
347.902
347.946
347.965
347.974
347.981
347.986
347.99
347.992
347.993
347.991
347.987
347.982
347.975
347.966
347.948
347.904
347.796
347.543
346.981
345.723
343.205
339.155
332.523
332.418
338.702
342.71
345.37
346.851
347.508
347.765
347.847
347.867
347.871
347.875
347.882
347.89
347.896
347.9
347.9
347.897
347.891
347.884
347.877
347.872
347.868
347.849
347.766
347.51
346.853
345.374
342.716
338.708
332.424
332.348
338.289
342.389
345.24
346.879
347.54
347.705
347.701
347.671
347.656
347.66
347.674
347.689
347.701
347.708
347.709
347.703
347.691
347.677
347.663
347.659
347.673
347.702
347.706
347.541
346.881
345.242
342.393
338.294
332.353
332.37
338.183
342.72
345.775
347.236
347.554
347.422
347.249
347.156
347.138
347.162
347.2
347.236
347.262
347.276
347.277
347.264
347.239
347.203
347.166
347.142
347.16
347.252
347.424
347.555
347.236
345.776
342.722
338.187
332.375
332.786
339.207
344.577
347.294
347.65
347
346.317
345.932
345.816
345.851
345.943
346.043
346.126
346.183
346.213
346.214
346.186
346.13
346.048
345.949
345.857
345.822
345.937
346.32
347.001
347.65
347.294
344.577
339.209
332.789
335.424
342.672
348.941
348.674
346.612
344.689
343.536
343.053
342.974
343.087
343.261
343.431
343.57
343.665
343.714
343.715
343.668
343.574
343.437
343.267
343.094
342.981
343.059
343.54
344.692
346.613
348.674
348.94
342.671
335.425
331.291
358.85
351.692
346.126
341.99
339.759
338.803
338.529
338.568
338.724
338.904
339.067
339.197
339.286
339.331
339.332
339.288
339.2
339.072
338.91
338.731
338.575
338.536
338.809
339.764
341.992
346.127
351.692
358.847
331.287
442.044
361.007
346.04
337.046
333.554
332.209
331.701
331.531
331.505
331.529
331.566
331.604
331.635
331.658
331.67
331.671
331.66
331.638
331.608
331.571
331.535
331.512
331.538
331.707
332.215
333.558
337.048
346.041
361.008
442.04
439.067
359.713
345.317
336.561
333.033
331.542
330.887
330.603
330.496
330.463
330.461
330.47
330.482
330.492
330.498
330.498
330.492
330.481
330.468
330.458
330.46
330.493
330.6
330.883
331.538
333.027
336.554
345.311
359.712
439.108
331.058
357.569
350.73
345.414
341.352
339.005
337.844
337.366
337.241
337.278
337.375
337.482
337.573
337.638
337.672
337.671
337.637
337.571
337.479
337.372
337.274
337.236
337.361
337.839
339
341.348
345.413
350.737
357.594
331.089
335.147
342.163
348.179
347.947
345.937
343.922
342.551
341.822
341.537
341.501
341.579
341.693
341.8
341.878
341.919
341.918
341.877
341.797
341.69
341.576
341.497
341.532
341.818
342.547
343.92
345.938
347.955
348.197
342.187