/*--------------------------------*- C++ -*----------------------------------*\
| =========                 |                                                 |
| \\      /  F ield         | OpenFOAM: The Open Source CFD Toolbox           |
|  \\    /   O peration     | Version:  2312                                  |
|   \\  /    A nd           | Website:  www.openfoam.com                      |
|    \\/     M anipulation  |                                                 |
\*---------------------------------------------------------------------------*/
FoamFile
{
    version     2.0;
    format      ascii;
    arch        "LSB;label=32;scalar=64";
    class       volVectorField;
    location    "400";
    object      U;
}
// * * * * * * * * * * * * * * * * * * * * * * * * * * * * * * * * * * * * * //

dimensions      [0 1 -1 0 0 0 0];

internalField   nonuniform List<vector> 
27000
(
(-4.73104e-05 9.35069e-05 0.107699)
(-0.000191021 0.000209521 0.0764868)
(-8.96717e-05 0.000216935 0.0818533)
(-5.74266e-05 0.000196797 0.0834315)
(-2.42528e-05 0.000191581 0.0852826)
(-5.04503e-06 0.000192881 0.0867274)
(8.19627e-06 0.000196131 0.0878044)
(1.70614e-05 0.000199627 0.0886659)
(2.20207e-05 0.000202989 0.0893861)
(2.35397e-05 0.000206143 0.0899626)
(2.233e-05 0.000208999 0.090414)
(1.9173e-05 0.000211455 0.0907611)
(1.46235e-05 0.000213374 0.0910141)
(9.17652e-06 0.00021467 0.0911789)
(3.21653e-06 0.000215317 0.0912602)
(-2.914e-06 0.000215326 0.0912605)
(-8.88182e-06 0.00021468 0.0911798)
(-1.43324e-05 0.000213391 0.0910156)
(-1.88935e-05 0.000211495 0.0907633)
(-2.20858e-05 0.00020903 0.0904167)
(-2.33064e-05 0.000206199 0.0899657)
(-2.1849e-05 0.000203045 0.0893893)
(-1.69304e-05 0.000199689 0.088669)
(-8.16311e-06 0.000196172 0.0878073)
(4.99544e-06 0.000192866 0.08673)
(2.41837e-05 0.000191602 0.0852846)
(5.73478e-05 0.000196777 0.0834332)
(8.99347e-05 0.000217534 0.0818548)
(0.000190759 0.000209127 0.0764888)
(4.73587e-05 9.39156e-05 0.107702)
(0.000286947 -0.000126635 0.0627595)
(0.000126993 -5.62919e-05 0.0838734)
(0.000101923 0.000143618 0.0918741)
(6.9785e-05 0.000197593 0.0945685)
(6.53728e-05 0.000224273 0.0958412)
(6.76395e-05 0.0002423 0.0966983)
(6.86588e-05 0.000257322 0.0973099)
(6.78065e-05 0.000269875 0.0977626)
(6.46403e-05 0.00028013 0.0981094)
(5.90043e-05 0.000288225 0.0983746)
(5.11425e-05 0.000294544 0.0985746)
(4.14891e-05 0.000299333 0.0987231)
(3.05749e-05 0.00030278 0.0988289)
(1.87989e-05 0.000305008 0.0988972)
(6.53131e-06 0.000306115 0.098931)
(-5.90013e-06 0.000306129 0.0989316)
(-1.8179e-05 0.000305058 0.0988991)
(-2.9972e-05 0.000302864 0.0988319)
(-4.0917e-05 0.000299445 0.098727)
(-5.05999e-05 0.000294697 0.0985792)
(-5.85312e-05 0.000288394 0.0983795)
(-6.42133e-05 0.000280322 0.0981143)
(-6.74617e-05 0.000270089 0.0977672)
(-6.83998e-05 0.000257495 0.0973138)
(-6.74962e-05 0.000242437 0.0967014)
(-6.54015e-05 0.000224264 0.0958436)
(-6.98134e-05 0.000197601 0.0945705)
(-0.000102092 0.000143309 0.0918761)
(-0.000126994 -5.63645e-05 0.0838752)
(-0.000287246 -0.00012703 0.0627604)
(9.14142e-05 0.00014544 0.0806657)
(0.00012252 0.000158539 0.0901406)
(0.000164034 0.000206777 0.0970477)
(0.000154431 0.000236712 0.0986784)
(0.000138086 0.000257003 0.0991449)
(0.000124701 0.000272517 0.0993694)
(0.000113062 0.000285307 0.0995293)
(0.00010201 0.000296239 0.0996522)
(9.09296e-05 0.000305245 0.099748)
(7.91888e-05 0.00031247 0.0998226)
(6.64925e-05 0.000317998 0.0998799)
(5.28689e-05 0.000322098 0.099923)
(3.8455e-05 0.000324971 0.0999541)
(2.34818e-05 0.0003268 0.0999745)
(8.16323e-06 0.000327694 0.099985)
(-7.27715e-06 0.000327721 0.0999857)
(-2.2603e-05 0.000326875 0.0999765)
(-3.76049e-05 0.000325099 0.0999573)
(-5.20529e-05 0.000322274 0.0999271)
(-6.5725e-05 0.000318224 0.0998847)
(-7.84712e-05 0.000312734 0.0998277)
(-9.02858e-05 0.000305559 0.099753)
(-0.000101437 0.000296547 0.0996569)
(-0.000112559 0.000285642 0.0995334)
(-0.000124305 0.000272774 0.0993727)
(-0.000137775 0.000257223 0.0991475)
(-0.000154305 0.000236745 0.0986806)
(-0.000163925 0.000206765 0.0970497)
(-0.00012259 0.000158396 0.0901429)
(-9.1151e-05 0.000145617 0.0806687)
(0.000131764 7.27984e-05 0.0839889)
(0.00014821 0.000148134 0.0941075)
(0.000181973 0.000215278 0.0984017)
(0.000177891 0.000237045 0.0994805)
(0.000165185 0.000251611 0.0997801)
(0.00014964 0.000263239 0.0998858)
(0.000133763 0.000273449 0.099944)
(0.00011839 0.000282554 0.0999873)
(0.000103413 0.000290506 0.100022)
(8.85063e-05 0.000297077 0.10005)
(7.33511e-05 0.000302266 0.100072)
(5.778e-05 0.000306129 0.100089)
(4.17875e-05 0.000308844 0.100102)
(2.54323e-05 0.000310559 0.10011)
(8.84546e-06 0.000311403 0.100115)
(-7.82317e-06 0.000311434 0.100115)
(-2.44275e-05 0.000310659 0.100112)
(-4.08073e-05 0.000309003 0.100105)
(-5.68366e-05 0.000306358 0.100093)
(-7.24589e-05 0.000302545 0.100077)
(-8.76733e-05 0.00029742 0.100055)
(-0.000102634 0.000290881 0.100027)
(-0.00011768 0.000282971 0.0999918)
(-0.000133129 0.000273841 0.099948)
(-0.000149067 0.000263617 0.0998892)
(-0.00016471 0.000251899 0.0997832)
(-0.000177516 0.000237258 0.0994833)
(-0.000181756 0.000215346 0.0984045)
(-0.000148091 0.00014818 0.0941105)
(-0.00013152 7.30532e-05 0.0839924)
(0.000132364 9.91717e-05 0.0864953)
(0.000169721 0.000157914 0.0960447)
(0.000200732 0.000210102 0.0990771)
(0.000194107 0.000228529 0.0997493)
(0.000180968 0.000239844 0.0999481)
(0.000164625 0.000248711 0.100016)
(0.00014711 0.00025658 0.100044)
(0.00012956 0.000263844 0.100061)
(0.000112349 0.000270405 0.100074)
(9.53856e-05 0.000276065 0.100084)
(7.84708e-05 0.000280659 0.100093)
(6.14598e-05 0.000284175 0.1001)
(4.42609e-05 0.000286676 0.100105)
(2.68719e-05 0.000288274 0.100109)
(9.34003e-06 0.000289065 0.100111)
(-8.25085e-06 0.000289104 0.100112)
(-2.57944e-05 0.000288392 0.100111)
(-4.3211e-05 0.000286873 0.100108)
(-6.04529e-05 0.000284443 0.100104)
(-7.75114e-05 0.000280999 0.100097)
(-9.44766e-05 0.000276466 0.100089)
(-0.000111507 0.000270857 0.100078)
(-0.000128772 0.000264319 0.100065)
(-0.000146388 0.000257061 0.100048)
(-0.000163983 0.000249154 0.10002)
(-0.0001804 0.000240242 0.0999521)
(-0.000193659 0.000228838 0.0997535)
(-0.000200414 0.000210339 0.0990816)
(-0.000169549 0.000158092 0.0960492)
(-0.000132189 9.94134e-05 0.0864998)
(0.00014148 9.85291e-05 0.0883034)
(0.000188048 0.000161358 0.0971622)
(0.000216324 0.000202042 0.0994357)
(0.00020769 0.000215397 0.0998908)
(0.000193193 0.000223829 0.100017)
(0.00017581 0.000230527 0.100057)
(0.000157166 0.000236594 0.10007)
(0.000138289 0.000242344 0.100074)
(0.00011961 0.000247687 0.100076)
(0.000101179 0.000252421 0.100078)
(8.29214e-05 0.000256387 0.10008)
(6.47154e-05 0.0002595 0.100082)
(4.64778e-05 0.000261765 0.100084)
(2.81612e-05 0.000263236 0.100085)
(9.77203e-06 0.000263974 0.100086)
(-8.64594e-06 0.000264022 0.100087)
(-2.70497e-05 0.000263375 0.100087)
(-4.53945e-05 0.000261995 0.100086)
(-6.36684e-05 0.000259816 0.100085)
(-8.19215e-05 0.000256784 0.100084)
(-0.000100238 0.000252887 0.100082)
(-0.000118717 0.000248209 0.10008)
(-0.000137462 0.000242899 0.100079)
(-0.0001564 0.000237153 0.100075)
(-0.000175113 0.000231073 0.100062)
(-0.000192599 0.00022433 0.100022)
(-0.000207183 0.000215857 0.0998969)
(-0.000215962 0.000202422 0.0994424)
(-0.000187821 0.000161663 0.0971688)
(-0.000141281 9.88184e-05 0.0883091)
(0.000150014 9.58818e-05 0.0896625)
(0.000204361 0.000155547 0.097866)
(0.000229631 0.000188634 0.0996446)
(0.000219344 0.000198835 0.0999731)
(0.000203518 0.000205106 0.100053)
(0.000185097 0.000210134 0.100072)
(0.000165526 0.000214803 0.100073)
(0.000145667 0.000219338 0.10007)
(0.000125903 0.000223648 0.100065)
(0.000106358 0.000227562 0.100062)
(8.70014e-05 0.000230918 0.100061)
(6.7771e-05 0.000233617 0.10006)
(4.85856e-05 0.000235621 0.10006)
(2.93958e-05 0.000236948 0.10006)
(1.01843e-05 0.000237626 0.100061)
(-9.0474e-06 0.000237679 0.100062)
(-2.82727e-05 0.000237107 0.100062)
(-4.74869e-05 0.000235885 0.100063)
(-6.67108e-05 0.000233979 0.100064)
(-8.59868e-05 0.000231371 0.100065)
(-0.000105389 0.000228097 0.100067)
(-0.000124992 0.000224246 0.100071)
(-0.000144811 0.000219976 0.100075)
(-0.000164734 0.000215463 0.100079)
(-0.000184386 0.000210783 0.100079)
(-0.00020288 0.000205742 0.10006)
(-0.000218827 0.000199425 0.0999814)
(-0.000229227 0.000189166 0.0996537)
(-0.000204111 0.000155958 0.0978748)
(-0.000149811 9.62021e-05 0.0896693)
(0.000157932 9.03296e-05 0.0906967)
(0.000218261 0.000144954 0.0983401)
(0.000240778 0.000171683 0.0997776)
(0.000229185 0.000179682 0.100023)
(0.000212234 0.000184465 0.100073)
(0.000192949 0.000188281 0.100078)
(0.000172615 0.000191881 0.10007)
(0.000151982 0.00019543 0.100061)
(0.00013139 0.000198873 0.100053)
(0.000110958 0.000202056 0.100048)
(9.07088e-05 0.000204843 0.100044)
(7.05945e-05 0.000207127 0.100042)
(5.05624e-05 0.000208859 0.100041)
(3.0562e-05 0.000210025 0.100041)
(1.05631e-05 0.000210633 0.100041)
(-9.43657e-06 0.000210693 0.100042)
(-2.94464e-05 0.000210206 0.100043)
(-4.94723e-05 0.000209156 0.100044)
(-6.9537e-05 0.000207537 0.100046)
(-8.96906e-05 0.000205355 0.100049)
(-0.00010999 0.00020266 0.100053)
(-0.000130469 0.000199549 0.100059)
(-0.000151118 0.000196164 0.100068)
(-0.000171816 0.00019264 0.100078)
(-0.000192218 0.000189059 0.100086)
(-0.000211598 0.000185231 0.100082)
(-0.000228635 0.000180423 0.100034)
(-0.000240351 0.000172355 0.0997887)
(-0.000217986 0.00014548 0.0983506)
(-0.000157713 9.06931e-05 0.0907041)
(0.000165487 8.24291e-05 0.0915038)
(0.000230115 0.000130821 0.0986757)
(0.000250099 0.000152327 0.0998687)
(0.000237336 0.000158639 0.100056)
(0.000219452 0.000162345 0.100084)
(0.000199445 0.000165273 0.100079)
(0.000178511 0.00016804 0.100065)
(0.000157281 0.000170809 0.100053)
(0.000136046 0.000173524 0.100043)
(0.000114929 0.000176078 0.100036)
(9.39543e-05 0.000178349 0.100031)
(7.31048e-05 0.000180244 0.100029)
(5.23367e-05 0.000181706 0.100028)
(3.16115e-05 0.000182705 0.100027)
(1.09039e-05 0.00018324 0.100027)
(-9.80704e-06 0.000183306 0.100028)
(-3.05272e-05 0.000182905 0.100029)
(-5.12712e-05 0.000182035 0.100031)
(-7.2069e-05 0.000180698 0.100033)
(-9.2956e-05 0.000178918 0.100036)
(-0.000113971 0.000176749 0.100042)
(-0.000135136 0.000174284 0.10005)
(-0.000156425 0.000171631 0.10006)
(-0.000177715 0.000168914 0.100074)
(-0.000198722 0.000166168 0.100088)
(-0.000218805 0.00016325 0.100095)
(-0.000236781 0.000159526 0.100068)
(-0.000249649 0.000153141 0.0998814)
(-0.000229808 0.000131473 0.0986875)
(-0.000165254 8.28584e-05 0.0915114)
(0.000172248 7.25599e-05 0.0921346)
(0.000240077 0.000114066 0.0989205)
(0.000257799 0.000131155 0.0999343)
(0.000243986 0.000136109 0.100079)
(0.000225275 0.000138993 0.100091)
(0.000204664 0.000141242 0.100078)
(0.000183257 0.00014338 0.100061)
(0.000161572 0.000145521 0.100046)
(0.000139857 0.000147646 0.100035)
(0.000118213 0.000149665 0.100027)
(9.66731e-05 0.000151486 0.100023)
(7.52279e-05 0.000153029 0.10002)
(5.38494e-05 0.000154234 0.100019)
(3.25093e-05 0.000155076 0.100019)
(1.11833e-05 0.000155534 0.100019)
(-1.01401e-05 0.000155606 0.100019)
(-3.14735e-05 0.000155293 0.10002)
(-5.28326e-05 0.000154593 0.100022)
(-7.42353e-05 0.000153522 0.100024)
(-9.5712e-05 0.000152107 0.100028)
(-0.000117288 0.000150401 0.100033)
(-0.000138976 0.00014848 0.100042)
(-0.000160741 0.000146438 0.100054)
(-0.000182484 0.000144355 0.10007)
(-0.000203957 0.00014226 0.100088)
(-0.000224642 0.000140031 0.100103)
(-0.000243436 0.000137133 0.100092)
(-0.000257341 0.000132117 0.099948)
(-0.00023976 0.000114846 0.0989329)
(-0.000172005 7.30716e-05 0.0921422)
(0.000178004 6.1194e-05 0.0926161)
(0.000248226 9.53862e-05 0.0990989)
(0.000264005 0.00010862 0.0999818)
(0.000249253 0.000112412 0.100094)
(0.000229833 0.000114613 0.100095)
(0.000208723 0.000116341 0.100076)
(0.00018694 0.000117976 0.100056)
(0.000164914 0.000119622 0.10004)
(0.00014284 0.00012126 0.100029)
(0.000120806 0.000122834 0.100021)
(9.88384e-05 0.000124267 0.100017)
(7.69302e-05 0.000125496 0.100014)
(5.50671e-05 0.000126472 0.100013)
(3.32276e-05 0.000127161 0.100013)
(1.13987e-05 0.000127549 0.100014)
(-1.04305e-05 0.000127626 0.100014)
(-3.22675e-05 0.000127392 0.100015)
(-5.41199e-05 0.000126853 0.100016)
(-7.60042e-05 0.000126023 0.100019)
(-9.79378e-05 0.000124931 0.100022)
(-0.000119939 0.000123624 0.100028)
(-0.00014201 0.000122164 0.100036)
(-0.00016413 0.000120621 0.100049)
(-0.00018621 0.000119051 0.100066)
(-0.000208055 0.000117473 0.100087)
(-0.000229234 0.000115777 0.100108)
(-0.000248725 0.000113576 0.100108)
(-0.000263566 0.000109719 0.0999959)
(-0.000247912 9.63035e-05 0.0991115)
(-0.000177767 6.18005e-05 0.0926237)
(0.000182678 4.86718e-05 0.0929729)
(0.000254633 7.52923e-05 0.0992259)
(0.00026883 8.50715e-05 0.100015)
(0.000253276 8.78356e-05 0.100105)
(0.000233263 8.94467e-05 0.100097)
(0.000211746 9.07274e-05 0.100074)
(0.000189668 9.19481e-05 0.100052)
(0.000167386 9.31804e-05 0.100036)
(0.000145057 9.4416e-05 0.100024)
(0.000122742 9.56111e-05 0.100017)
(0.000100461 9.67112e-05 0.100013)
(7.82117e-05 9.76649e-05 0.100011)
(5.59817e-05 9.84322e-05 0.10001)
(3.3762e-05 9.8984e-05 0.10001)
(1.15438e-05 9.93042e-05 0.100011)
(-1.0676e-05 9.93842e-05 0.100011)
(-3.28991e-05 9.9224e-05 0.100012)
(-5.51302e-05 9.88297e-05 0.100013)
(-7.73759e-05 9.8216e-05 0.100015)
(-9.96472e-05 9.74093e-05 0.100018)
(-0.000121955 9.64468e-05 0.100024)
(-0.000144304 9.53777e-05 0.100032)
(-0.000166675 9.42516e-05 0.100045)
(-0.000189005 9.31128e-05 0.100063)
(-0.000211141 9.19635e-05 0.100086)
(-0.00023272 9.07306e-05 0.10011)
(-0.0002528 8.91297e-05 0.100118)
(-0.000268428 8.63112e-05 0.100029)
(-0.000254347 7.63465e-05 0.0992382)
(-0.000182457 4.93791e-05 0.0929802)
(0.000186217 3.52892e-05 0.0932245)
(0.000259365 5.41755e-05 0.0993123)
(0.000272349 6.07896e-05 0.100038)
(0.000256167 6.26111e-05 0.100112)
(0.000235688 6.3688e-05 0.100098)
(0.000213854 6.45675e-05 0.100072)
(0.000191553 6.54235e-05 0.100049)
(0.00016909 6.62994e-05 0.100033)
(0.000146581 6.71876e-05 0.100021)
(0.000124074 6.80544e-05 0.100015)
(0.000101579 6.88621e-05 0.100011)
(7.90908e-05 6.9571e-05 0.100009)
(5.66055e-05 7.01491e-05 0.100009)
(3.41156e-05 7.05744e-05 0.100009)
(1.16213e-05 7.0831e-05 0.100009)
(-1.08765e-05 7.09128e-05 0.10001)
(-3.33753e-05 7.08191e-05 0.10001)
(-5.58729e-05 7.05559e-05 0.100011)
(-7.83715e-05 7.01369e-05 0.100013)
(-0.000100877 6.95829e-05 0.100016)
(-0.000123395 6.89235e-05 0.100021)
(-0.000145932 6.81941e-05 0.100029)
(-0.000168477 6.74321e-05 0.100041)
(-0.000190986 6.66641e-05 0.10006)
(-0.000213338 6.58976e-05 0.100083)
(-0.000235228 6.508e-05 0.10011)
(-0.000255766 6.40275e-05 0.100124)
(-0.000272013 6.21632e-05 0.100051)
(-0.000259127 5.53639e-05 0.0993239)
(-0.000186029 3.60982e-05 0.0932313)
(0.000188594 2.13166e-05 0.0933847)
(0.000262471 3.23725e-05 0.0993657)
(0.000274624 3.60148e-05 0.100051)
(0.000258002 3.6955e-05 0.100115)
(0.000237202 3.75302e-05 0.100098)
(0.000215148 3.80333e-05 0.100071)
(0.000192694 3.8552e-05 0.100047)
(0.000170109 3.91037e-05 0.100031)
(0.000147487 3.96766e-05 0.10002)
(0.00012486 4.0249e-05 0.100013)
(0.000102233 4.07905e-05 0.10001)
(7.95995e-05 4.1275e-05 0.100008)
(5.69554e-05 4.16789e-05 0.100008)
(3.43003e-05 4.19844e-05 0.100008)
(1.16347e-05 4.21811e-05 0.100008)
(-1.1035e-05 4.22625e-05 0.100009)
(-3.37032e-05 4.22298e-05 0.100009)
(-5.63655e-05 4.20875e-05 0.10001)
(-7.90193e-05 4.18466e-05 0.100012)
(-0.000101667 4.15229e-05 0.100014)
(-0.000124315 4.1138e-05 0.100019)
(-0.000146967 4.07162e-05 0.100026)
(-0.000169622 4.02823e-05 0.100039)
(-0.000192247 3.98558e-05 0.100057)
(-0.000214746 3.94422e-05 0.100081)
(-0.00023685 3.90182e-05 0.100109)
(-0.000257701 3.84823e-05 0.100127)
(-0.000274377 3.75113e-05 0.100063)
(-0.000262302 3.36881e-05 0.0993763)
(-0.000188452 2.22225e-05 0.0933909)
(0.000189783 7.00686e-06 0.0934624)
(0.000263984 1.0182e-05 0.0993908)
(0.000275698 1.09647e-05 0.100057)
(0.000258838 1.10636e-05 0.100116)
(0.000237866 1.11564e-05 0.100098)
(0.000215694 1.12956e-05 0.10007)
(0.000193158 1.14899e-05 0.100046)
(0.000170509 1.17317e-05 0.100029)
(0.000147831 1.20077e-05 0.100019)
(0.000125148 1.22996e-05 0.100012)
(0.000102461 1.25899e-05 0.100009)
(7.97633e-05 1.286e-05 0.100007)
(5.70521e-05 1.30961e-05 0.100007)
(3.4326e-05 1.32861e-05 0.100007)
(1.15895e-05 1.34229e-05 0.100007)
(-1.11522e-05 1.35035e-05 0.100008)
(-3.38917e-05 1.35277e-05 0.100008)
(-5.66228e-05 1.35004e-05 0.100009)
(-7.93432e-05 1.34285e-05 0.10001)
(-0.000102053 1.3323e-05 0.100013)
(-0.000124758 1.31969e-05 0.100017)
(-0.000147464 1.30653e-05 0.100024)
(-0.000170171 1.29422e-05 0.100036)
(-0.000192855 1.28407e-05 0.100054)
(-0.000215431 1.27682e-05 0.100079)
(-0.000237645 1.27243e-05 0.100107)
(-0.00025866 1.26864e-05 0.100127)
(-0.00027556 1.25708e-05 0.100068)
(-0.000263903 1.16119e-05 0.0994001)
(-0.000189702 8.00141e-06 0.0934679)
(0.000189778 -7.40799e-06 0.0934618)
(0.000263924 -1.21207e-05 0.0993898)
(0.000275595 -1.41539e-05 0.100056)
(0.000258707 -1.48796e-05 0.100116)
(0.000237716 -1.52593e-05 0.100097)
(0.000215529 -1.54785e-05 0.100069)
(0.000192983 -1.56052e-05 0.100046)
(0.000170327 -1.56695e-05 0.100029)
(0.000147647 -1.56886e-05 0.100018)
(0.000124966 -1.5674e-05 0.100012)
(0.000102287 -1.56347e-05 0.100009)
(7.9602e-05 -1.55781e-05 0.100007)
(5.69079e-05 -1.55109e-05 0.100007)
(3.42032e-05 -1.54374e-05 0.100007)
(1.14897e-05 -1.53612e-05 0.100007)
(-1.12277e-05 -1.52833e-05 0.100007)
(-3.39438e-05 -1.52025e-05 0.100007)
(-5.6654e-05 -1.51163e-05 0.100008)
(-7.93565e-05 -1.50207e-05 0.100009)
(-0.000102053 -1.49104e-05 0.100012)
(-0.000124749 -1.47806e-05 0.100016)
(-0.00014745 -1.46264e-05 0.100023)
(-0.000170157 -1.44428e-05 0.100035)
(-0.000192843 -1.42242e-05 0.100052)
(-0.000215423 -1.39601e-05 0.100077)
(-0.000237645 -1.36298e-05 0.100105)
(-0.00025867 -1.31789e-05 0.100124)
(-0.000275585 -1.24561e-05 0.100065)
(-0.000263948 -1.0592e-05 0.0993977)
(-0.000189768 -6.33642e-06 0.0934665)
(0.000188579 -2.17085e-05 0.0933829)
(0.000262296 -3.42656e-05 0.099363)
(0.000274319 -3.91374e-05 0.100049)
(0.000257614 -4.06919e-05 0.100113)
(0.000236758 -4.15466e-05 0.100096)
(0.000214661 -4.21255e-05 0.10007)
(0.000192176 -4.2577e-05 0.100047)
(0.000169571 -4.29546e-05 0.10003)
(0.000146942 -4.32782e-05 0.100019)
(0.000124323 -4.35518e-05 0.100012)
(0.000101718 -4.37738e-05 0.100009)
(7.9122e-05 -4.3941e-05 0.100007)
(5.65298e-05 -4.40496e-05 0.100006)
(3.39361e-05 -4.4099e-05 0.100006)
(1.13395e-05 -4.40865e-05 0.100006)
(-1.12591e-05 -4.40119e-05 0.100006)
(-3.38586e-05 -4.38733e-05 0.100007)
(-5.64585e-05 -4.36698e-05 0.100007)
(-7.90602e-05 -4.34003e-05 0.100008)
(-0.000101668 -4.30672e-05 0.100011)
(-0.000124289 -4.2673e-05 0.100015)
(-0.000146928 -4.22245e-05 0.100022)
(-0.00016958 -4.17273e-05 0.100034)
(-0.000192213 -4.11835e-05 0.100051)
(-0.000214727 -4.05808e-05 0.100075)
(-0.000236851 -3.98751e-05 0.100103)
(-0.000257732 -3.89353e-05 0.10012)
(-0.000274452 -3.73675e-05 0.100056)
(-0.000262438 -3.26588e-05 0.0993694)
(-0.000188648 -2.05735e-05 0.0933869)
(0.000186194 -3.566e-05 0.0932216)
(0.000259083 -5.59775e-05 0.099308)
(0.000271856 -6.37812e-05 0.100034)
(0.000255539 -6.61939e-05 0.100109)
(0.000234969 -6.75348e-05 0.100096)
(0.000213067 -6.84843e-05 0.100071)
(0.000190715 -6.92735e-05 0.100048)
(0.000168218 -6.99838e-05 0.100032)
(0.000145699 -7.06343e-05 0.10002)
(0.000123204 -7.12201e-05 0.100013)
(0.000100745 -7.17264e-05 0.100009)
(7.83188e-05 -7.21352e-05 0.100007)
(5.59151e-05 -7.24357e-05 0.100006)
(3.35252e-05 -7.26161e-05 0.100006)
(1.11414e-05 -7.26734e-05 0.100005)
(-1.12424e-05 -7.26021e-05 0.100005)
(-3.36303e-05 -7.24024e-05 0.100006)
(-5.60275e-05 -7.20725e-05 0.100006)
(-7.8442e-05 -7.16176e-05 0.100008)
(-0.000100883 -7.10437e-05 0.10001)
(-0.000123358 -7.03657e-05 0.100015)
(-0.000145873 -6.96016e-05 0.100022)
(-0.000168414 -6.87707e-05 0.100034)
(-0.000190935 -6.7885e-05 0.100051)
(-0.00021331 -6.69325e-05 0.100074)
(-0.000235237 -6.58444e-05 0.1001)
(-0.000255821 -6.44014e-05 0.100113)
(-0.000272142 -6.19644e-05 0.100039)
(-0.000259353 -5.43133e-05 0.0993128)
(-0.00018635 -3.44778e-05 0.0932248)
(0.000182649 -4.90089e-05 0.0929691)
(0.00025426 -7.69606e-05 0.0992201)
(0.000268172 -8.78721e-05 0.100011)
(0.000252438 -9.11942e-05 0.100101)
(0.000232302 -9.30509e-05 0.100094)
(0.000210691 -9.43928e-05 0.100072)
(0.000188545 -9.55494e-05 0.100051)
(0.00016622 -9.66276e-05 0.100034)
(0.000143876 -9.76452e-05 0.100023)
(0.000121577 -9.85824e-05 0.100015)
(9.93457e-05 -9.94061e-05 0.100011)
(7.71763e-05 -0.000100086 0.100008)
(5.50564e-05 -0.000100596 0.100006)
(3.29679e-05 -0.000100923 0.100005)
(1.08959e-05 -0.000101054 0.100005)
(-1.11722e-05 -0.000100988 0.100005)
(-3.32491e-05 -0.00010072 0.100005)
(-5.5347e-05 -0.000100254 0.100006)
(-7.74807e-05 -9.95936e-05 0.100008)
(-9.96654e-05 -9.87543e-05 0.10001)
(-0.000121917 -9.77608e-05 0.100015)
(-0.000144235 -9.6644e-05 0.100023)
(-0.000166601 -9.54436e-05 0.100035)
(-0.000188948 -9.41826e-05 0.100052)
(-0.000211116 -9.2855e-05 0.100074)
(-0.000232742 -9.13612e-05 0.100097)
(-0.00025289 -8.93924e-05 0.100104)
(-0.000268614 -8.60308e-05 0.100014)
(-0.000254662 -7.52639e-05 0.0992236)
(-0.000182892 -4.77964e-05 0.0929716)
(0.000177973 -6.14852e-05 0.0926115)
(0.000247784 -9.68824e-05 0.0990921)
(0.000263217 -0.000111177 0.0999762)
(0.000248242 -0.000115486 0.10009)
(0.000228671 -0.000117912 0.100092)
(0.000207448 -0.000119693 0.100074)
(0.000185581 -0.000121271 0.100054)
(0.000163502 -0.000122777 0.100038)
(0.000141411 -0.000124222 0.100027)
(0.000119398 -0.000125565 0.100018)
(9.74875e-05 -0.000126754 0.100013)
(7.56773e-05 -0.000127738 0.10001)
(5.3943e-05 -0.000128484 0.100007)
(3.22606e-05 -0.000128969 0.100006)
(1.06046e-05 -0.000129183 0.100006)
(-1.10448e-05 -0.00012912 0.100005)
(-3.27065e-05 -0.000128781 0.100006)
(-5.44014e-05 -0.000128162 0.100007)
(-7.61503e-05 -0.000127275 0.100009)
(-9.79821e-05 -0.000126137 0.100012)
(-0.000119912 -0.000124782 0.100017)
(-0.000141948 -0.000123264 0.100025)
(-0.000164061 -0.000121634 0.100037)
(-0.000186162 -0.000119943 0.100054)
(-0.000208047 -0.000118187 0.100074)
(-0.000229285 -0.000116247 0.100092)
(-0.000248858 -0.000113699 0.100091)
(-0.000263815 -0.000109335 0.0999779)
(-0.000248318 -9.51802e-05 0.0990941)
(-0.000178306 -6.02574e-05 0.0926133)
(0.000172219 -7.27896e-05 0.0921294)
(0.000239595 -0.000115359 0.0989131)
(0.000256918 -0.000133423 0.0999282)
(0.000242851 -0.000138854 0.100074)
(0.000223966 -0.000141938 0.100088)
(0.000203224 -0.000144239 0.100075)
(0.000181722 -0.000146324 0.100058)
(0.000159979 -0.000148349 0.100043)
(0.000138242 -0.000150305 0.100032)
(0.00011662 -0.000152126 0.100023)
(9.51468e-05 -0.000153735 0.100017)
(7.38069e-05 -0.000155064 0.100013)
(5.25721e-05 -0.00015607 0.10001)
(3.14026e-05 -0.000156729 0.100009)
(1.0269e-05 -0.00015703 0.100008)
(-1.08575e-05 -0.000156973 0.100008)
(-3.19995e-05 -0.000156553 0.100008)
(-5.31811e-05 -0.000155771 0.100009)
(-7.44376e-05 -0.000154632 0.100012)
(-9.57965e-05 -0.000153157 0.100015)
(-0.000117296 -0.000151391 0.100021)
(-0.000138942 -0.000149396 0.10003)
(-0.000160701 -0.000147259 0.100041)
(-0.000182467 -0.000145049 0.100056)
(-0.000203987 -0.000142782 0.100073)
(-0.00022474 -0.000140319 0.100087)
(-0.000243624 -0.000137099 0.100074)
(-0.000257666 -0.000131612 0.0999283)
(-0.000240254 -0.000113672 0.0989139)
(-0.000172637 -7.15652e-05 0.0921306)
(0.000165469 -8.25798e-05 0.0914982)
(0.000229624 -0.000131885 0.0986682)
(0.000249172 -0.000154279 0.0998627)
(0.000236131 -0.00016102 0.100052)
(0.000218056 -0.000164914 0.100081)
(0.000197907 -0.000167884 0.100076)
(0.00017687 -0.000170617 0.100063)
(0.000155573 -0.000173287 0.10005)
(0.000134317 -0.000175862 0.100039)
(0.000113221 -0.00017825 0.10003)
(9.2313e-05 -0.00018034 0.100024)
(7.15735e-05 -0.000182055 0.100019)
(5.09521e-05 -0.000183343 0.100016)
(3.04056e-05 -0.000184186 0.100014)
(9.89203e-06 -0.00018458 0.100013)
(-1.0613e-05 -0.000184527 0.100013)
(-3.11337e-05 -0.000184025 0.100014)
(-5.16985e-05 -0.000183067 0.100015)
(-7.23382e-05 -0.000181656 0.100018)
(-9.31072e-05 -0.000179805 0.100022)
(-0.000114038 -0.000177564 0.100028)
(-0.000135159 -0.000175014 0.100036)
(-0.000156443 -0.00017226 0.100047)
(-0.000177758 -0.000169408 0.10006)
(-0.000198814 -0.000166496 0.100073)
(-0.000218973 -0.000163354 0.100079)
(-0.000237046 -0.000159327 0.10005)
(-0.000250052 -0.000152516 0.0998613)
(-0.000230395 -0.000130243 0.0986678)
(-0.000165969 -8.13676e-05 0.0914988)
(0.000157944 -9.03753e-05 0.0906909)
(0.000217794 -0.00014578 0.0983328)
(0.000239864 -0.000173296 0.0997721)
(0.000227971 -0.000181695 0.10002)
(0.000210822 -0.000186639 0.10007)
(0.000191385 -0.000190508 0.100075)
(0.000170938 -0.000194078 0.100067)
(0.000150238 -0.000197554 0.100057)
(0.000129616 -0.000200884 0.100047)
(0.000109205 -0.000203928 0.10004)
(8.90184e-05 -0.000206567 0.100034)
(6.9009e-05 -0.000208698 0.100029)
(4.91196e-05 -0.000210286 0.100026)
(2.92893e-05 -0.000211315 0.100024)
(9.48478e-06 -0.000211803 0.100023)
(-1.03197e-05 -0.000211753 0.100023)
(-3.01347e-05 -0.000211168 0.100024)
(-4.99806e-05 -0.000210034 0.100025)
(-6.98975e-05 -0.000208334 0.100028)
(-8.9929e-05 -0.000206077 0.100032)
(-0.000110147 -0.0002033 0.100037)
(-0.000130585 -0.000200101 0.100044)
(-0.000151227 -0.000196603 0.100053)
(-0.000171952 -0.000192951 0.100063)
(-0.00019241 -0.000189198 0.100071)
(-0.000211858 -0.000185165 0.100066)
(-0.000229003 -0.000180077 0.100016)
(-0.000240854 -0.000171611 0.0997694)
(-0.000218659 -0.000144205 0.0983314)
(-0.000158514 -8.9185e-05 0.0906909)
(0.000150069 -9.5803e-05 0.0896567)
(0.000203968 -0.000156128 0.0978596)
(0.000228779 -0.000189926 0.0996401)
(0.000218193 -0.000200469 0.09997)
(0.000202161 -0.000206896 0.10005)
(0.000183579 -0.000211974 0.100069)
(0.000163895 -0.000216631 0.100069)
(0.000143951 -0.000221112 0.100064)
(0.00012416 -0.000225332 0.100057)
(0.000104623 -0.000229135 0.100052)
(8.53217e-05 -0.000232367 0.100047)
(6.61846e-05 -0.000234943 0.100044)
(4.71279e-05 -0.000236825 0.100041)
(2.80958e-05 -0.00023804 0.10004)
(9.0554e-06 -0.00023861 0.100039)
(-9.98982e-06 -0.000238568 0.100039)
(-2.90395e-05 -0.000237904 0.100039)
(-4.80914e-05 -0.000236599 0.10004)
(-6.71718e-05 -0.000234611 0.100042)
(-8.63411e-05 -0.000231925 0.100045)
(-0.000105668 -0.000228568 0.100049)
(-0.000125231 -0.000224623 0.100054)
(-0.00014505 -0.000220247 0.10006)
(-0.000165002 -0.000215598 0.100065)
(-0.000184704 -0.000210768 0.100065)
(-0.000203287 -0.000205518 0.100045)
(-0.00021931 -0.000198957 0.0999655)
(-0.000229856 -0.000188331 0.0996363)
(-0.00020489 -0.000154651 0.0978574)
(-0.000150721 -9.46241e-05 0.0896563)
(0.000141633 -9.83006e-05 0.0882984)
(0.000187762 -0.000161724 0.0971573)
(0.000215602 -0.000203017 0.0994324)
(0.000206682 -0.00021667 0.0998884)
(0.000191959 -0.000225249 0.100014)
(0.00017442 -0.00023199 0.100053)
(0.000155639 -0.000238069 0.100064)
(0.000136682 -0.000243778 0.100066)
(0.000117955 -0.000249054 0.100065)
(9.95262e-05 -0.000253698 0.100063)
(8.13061e-05 -0.000257566 0.100062)
(6.31757e-05 -0.000260579 0.100061)
(4.50459e-05 -0.000262745 0.100061)
(2.68611e-05 -0.000264123 0.10006)
(8.62362e-06 -0.000264771 0.10006)
(-9.64253e-06 -0.000264731 0.10006)
(-2.78909e-05 -0.000264002 0.10006)
(-4.60942e-05 -0.000262539 0.10006)
(-6.42522e-05 -0.000260283 0.10006)
(-8.2411e-05 -0.00025717 0.100061)
(-0.000100662 -0.000253193 0.100061)
(-0.00011912 -0.000248424 0.100062)
(-0.000137862 -0.00024301 0.100062)
(-0.00015684 -0.000237141 0.10006)
(-0.000175611 -0.000230909 0.100049)
(-0.000193157 -0.000223994 0.100009)
(-0.000207855 -0.000215272 0.0998832)
(-0.000216728 -0.000201546 0.0994278)
(-0.000188737 -0.000160346 0.0971545)
(-0.000142353 -9.71221e-05 0.0882975)
(0.000132636 -9.88197e-05 0.0864913)
(0.000169623 -0.000158089 0.0960416)
(0.000200252 -0.000210753 0.099075)
(0.000193299 -0.000229461 0.0997473)
(0.000179965 -0.000240888 0.099945)
(0.000163426 -0.000249824 0.100011)
(0.000145766 -0.000257709 0.100036)
(0.000128114 -0.000264955 0.10005)
(0.000110845 -0.000271469 0.100059)
(9.38646e-05 -0.000277057 0.100066)
(7.69707e-05 -0.000281577 0.100072)
(6.00137e-05 -0.000285012 0.100076)
(4.28923e-05 -0.000287441 0.100078)
(2.56061e-05 -0.000288957 0.10008)
(8.18788e-06 -0.000289678 0.100081)
(-9.27946e-06 -0.000289637 0.100081)
(-2.67067e-05 -0.000288851 0.10008)
(-4.40163e-05 -0.000287251 0.100078)
(-6.11595e-05 -0.00028475 0.100075)
(-7.81528e-05 -0.000281223 0.100071)
(-9.50767e-05 -0.000276611 0.100065)
(-0.000112088 -0.000270917 0.100057)
(-0.000129381 -0.000264277 0.100047)
(-0.000147035 -0.000256913 0.100033)
(-0.000164704 -0.000248864 0.100007)
(-0.00018119 -0.000239791 0.09994)
(-0.000194525 -0.00022821 0.0997419)
(-0.0002014 -0.000209407 0.0990701)
(-0.000170586 -0.000156866 0.0960385)
(-0.000133446 -9.76145e-05 0.0864903)
(0.000132211 -7.22923e-05 0.0839862)
(0.000148403 -0.000148107 0.094106)
(0.000181799 -0.00021563 0.0984005)
(0.000177426 -0.000237622 0.0994783)
(0.000164484 -0.000252279 0.0997758)
(0.000148716 -0.00026401 0.0998785)
(0.000132678 -0.000274243 0.0999333)
(0.000117173 -0.000283364 0.0999728)
(0.000102126 -0.000291274 0.100004)
(8.71848e-05 -0.000297808 0.100028)
(7.20245e-05 -0.000302939 0.100047)
(5.64743e-05 -0.000306751 0.100061)
(4.05315e-05 -0.000309403 0.100071)
(2.4236e-05 -0.000311067 0.100077)
(7.72143e-06 -0.000311842 0.10008)
(-8.87271e-06 -0.000311812 0.10008)
(-2.53974e-05 -0.000310961 0.100077)
(-4.17072e-05 -0.000309239 0.100071)
(-5.76855e-05 -0.000306504 0.100061)
(-7.32588e-05 -0.000302623 0.100047)
(-8.84613e-05 -0.000297406 0.100028)
(-0.000103433 -0.000290782 0.100003)
(-0.000118519 -0.000282777 0.0999714)
(-0.000134045 -0.000273534 0.099931)
(-0.000150048 -0.000263211 0.0998753)
(-0.000165819 -0.000251338 0.0997716)
(-0.000178684 -0.000236525 0.0994734)
(-0.000183039 -0.000214405 0.0983958)
(-0.000149448 -0.000146986 0.0941032)
(-0.000133314 -7.09557e-05 0.0839852)