/*--------------------------------*- C++ -*----------------------------------*\
| =========                 |                                                 |
| \\      /  F ield         | OpenFOAM: The Open Source CFD Toolbox           |
|  \\    /   O peration     | Version:  2312                                  |
|   \\  /    A nd           | Website:  www.openfoam.com                      |
|    \\/     M anipulation  |                                                 |
\*---------------------------------------------------------------------------*/
FoamFile
{
    version     2.0;
    format      ascii;
    arch        "LSB;label=32;scalar=64";
    class       volScalarField;
    location    "250";
    object      alphat;
}
// * * * * * * * * * * * * * * * * * * * * * * * * * * * * * * * * * * * * * //

dimensions      [1 -1 -1 0 0 0 0];

internalField   nonuniform List<scalar> 
27000
(
0.00395284
0.00670824
0.00936494
0.0117404
0.0140481
0.0162019
0.0181571
0.0198084
0.0212287
0.0224415
0.0234413
0.0242334
0.0248244
0.0252173
0.0254132
0.025413
0.0252165
0.0248232
0.0242318
0.0234395
0.0224401
0.0212273
0.0198071
0.018156
0.0162011
0.0140479
0.0117407
0.00936572
0.00670905
0.00395326
0.00575237
0.00127987
0.00515685
0.00907297
0.0131543
0.0170301
0.0206925
0.0240989
0.027186
0.0299335
0.0323223
0.034313
0.0358531
0.036902
0.0374335
0.0374343
0.0369043
0.0358565
0.0343171
0.0323261
0.0299359
0.0271874
0.0240995
0.0206923
0.017029
0.0131532
0.00907243
0.00515684
0.00128016
0.00575275
0.0092281
0.00713821
0.0145087
0.0261324
0.0368606
0.0462092
0.0547544
0.0627762
0.0700941
0.0765711
0.0821299
0.0866974
0.0901978
0.0925687
0.0937657
0.0937676
0.0925745
0.0902073
0.0867096
0.082141
0.0765775
0.0700943
0.0627726
0.0547486
0.0462026
0.0368556
0.0261259
0.0145043
0.00713976
0.00922844
0.0121562
0.010833
0.0260232
0.0526112
0.0782396
0.096332
0.109805
0.120854
0.130201
0.138002
0.144425
0.149536
0.153358
0.155903
0.157176
0.157177
0.155908
0.153365
0.149544
0.14443
0.138002
0.130194
0.120844
0.109798
0.0963293
0.0782397
0.0526036
0.026014
0.0108331
0.0121558
0.0149202
0.0144653
0.0368321
0.0761424
0.113256
0.139096
0.155926
0.167732
0.176681
0.183216
0.188301
0.192245
0.195128
0.197016
0.197952
0.197953
0.197019
0.195132
0.19225
0.188304
0.18322
0.176676
0.167723
0.155922
0.139096
0.113254
0.0761306
0.036823
0.0144651
0.014919
0.0174804
0.0184011
0.0476542
0.0951724
0.137744
0.167092
0.185304
0.196708
0.204253
0.209389
0.213014
0.215623
0.217449
0.218615
0.219185
0.219186
0.218618
0.217453
0.215626
0.213016
0.20939
0.20425
0.196703
0.185298
0.167078
0.137734
0.0951601
0.0476477
0.0184016
0.0174786
0.0198126
0.0225463
0.0585389
0.111441
0.155669
0.185002
0.202737
0.213118
0.219286
0.223062
0.225457
0.227022
0.228042
0.228665
0.228962
0.228963
0.228667
0.228046
0.227024
0.225458
0.223062
0.219283
0.213114
0.202732
0.184995
0.155664
0.111437
0.0585432
0.0225489
0.0198103
0.0218969
0.0267458
0.0691001
0.125556
0.16978
0.19726
0.213275
0.222178
0.227038
0.229695
0.231171
0.232012
0.232498
0.23277
0.232893
0.232894
0.232772
0.232501
0.232014
0.231172
0.229694
0.227036
0.222176
0.213274
0.197262
0.169792
0.125567
0.0691171
0.0267513
0.0218936
0.0237104
0.0308734
0.0789728
0.137662
0.180944
0.20601
0.219923
0.227235
0.23091
0.232687
0.233513
0.233883
0.234042
0.234108
0.234132
0.234133
0.23411
0.234044
0.233884
0.233513
0.232687
0.23091
0.227235
0.219927
0.20602
0.180966
0.137681
0.0789951
0.0308805
0.0237069
0.0252651
0.0347684
0.0879256
0.147802
0.18883
0.212086
0.224182
0.230101
0.232802
0.233916
0.2343
0.234379
0.234354
0.234311
0.234284
0.234285
0.234312
0.234355
0.23438
0.234301
0.233917
0.232804
0.230105
0.224188
0.212096
0.188844
0.14782
0.087945
0.0347756
0.0252618
0.0265612
0.0382764
0.0957479
0.156294
0.195392
0.216553
0.227007
0.23177
0.233711
0.234349
0.234445
0.234355
0.234233
0.234139
0.234091
0.234091
0.23414
0.234234
0.234356
0.234446
0.234351
0.233714
0.231774
0.227013
0.216561
0.195404
0.156311
0.0957651
0.0382831
0.0265583
0.0275979
0.0412602
0.10222
0.163072
0.200506
0.219851
0.228927
0.232771
0.234146
0.234455
0.23437
0.234188
0.234023
0.233911
0.233856
0.233856
0.233911
0.234024
0.234189
0.234372
0.234457
0.234149
0.232776
0.228932
0.219858
0.200516
0.163087
0.102234
0.041266
0.0275956
0.0283755
0.0436041
0.107188
0.168149
0.204231
0.222173
0.230206
0.233377
0.234354
0.234448
0.234255
0.234027
0.233846
0.233732
0.233677
0.233677
0.233732
0.233847
0.234027
0.234256
0.234449
0.234356
0.23338
0.23021
0.222179
0.204241
0.168167
0.107199
0.0436084
0.0283738
0.0288939
0.0452178
0.110553
0.171547
0.20666
0.223649
0.23099
0.233724
0.234452
0.234416
0.234165
0.233916
0.233732
0.23362
0.233568
0.233568
0.23362
0.233732
0.233915
0.234165
0.234416
0.234452
0.233725
0.230991
0.223651
0.206665
0.171557
0.110557
0.04522
0.0288931
0.0291534
0.0460395
0.112248
0.173241
0.207855
0.224364
0.231361
0.233882
0.23449
0.234394
0.234117
0.23386
0.233677
0.233567
0.233518
0.233517
0.233567
0.233676
0.233859
0.234116
0.234392
0.234488
0.23388
0.231359
0.224362
0.207853
0.173241
0.112245
0.0460393
0.0291534
0.0291538
0.0460385
0.112245
0.173239
0.207854
0.224364
0.231361
0.233881
0.234489
0.234392
0.234116
0.233858
0.233675
0.233565
0.233515
0.233515
0.233564
0.233673
0.233856
0.234113
0.234389
0.234484
0.233876
0.231354
0.224356
0.207845
0.173227
0.112234
0.0460355
0.0291547
0.0288951
0.0452147
0.110545
0.171541
0.206657
0.223648
0.230989
0.233722
0.234448
0.234412
0.23416
0.233909
0.233725
0.233612
0.23356
0.23356
0.233611
0.233724
0.233907
0.234156
0.234407
0.234442
0.233714
0.230979
0.223636
0.206642
0.171519
0.110527
0.0452089
0.028897
0.0283774
0.043599
0.107176
0.16814
0.204229
0.222173
0.230205
0.233375
0.23435
0.234441
0.234247
0.234017
0.233835
0.233719
0.233664
0.233663
0.233718
0.233834
0.234015
0.234244
0.234437
0.234343
0.233365
0.230193
0.222158
0.204209
0.16811
0.107151
0.0435905
0.0283802
0.0276006
0.0412533
0.102204
0.163064
0.200506
0.219853
0.228927
0.232769
0.23414
0.234447
0.234359
0.234174
0.234007
0.233893
0.233837
0.233837
0.233893
0.234007
0.234173
0.234358
0.234444
0.234135
0.232761
0.228915
0.219838
0.200486
0.163034
0.102174
0.0412423
0.0276043
0.0265645
0.038268
0.0957296
0.156288
0.195395
0.216556
0.227008
0.231767
0.233705
0.234339
0.234432
0.234338
0.234214
0.234117
0.234067
0.234067
0.234117
0.234214
0.234339
0.234432
0.234339
0.233702
0.231762
0.226999
0.216544
0.195376
0.156258
0.0956955
0.038255
0.0265688
0.025269
0.034759
0.0879063
0.147797
0.188833
0.212089
0.224182
0.230098
0.232795
0.233905
0.234285
0.23436
0.234331
0.234285
0.234256
0.234256
0.234285
0.234332
0.234362
0.234287
0.233908
0.232796
0.230097
0.224177
0.212079
0.188816
0.14777
0.0878709
0.0347448
0.0252737
0.0237146
0.0308636
0.0789539
0.137659
0.180934
0.20601
0.219921
0.227229
0.230902
0.232674
0.233497
0.233862
0.234018
0.23408
0.234101
0.234101
0.23408
0.234019
0.233865
0.233501
0.232679
0.230907
0.227233
0.219922
0.206005
0.180912
0.137637
0.07892
0.0308492
0.0237194
0.0219012
0.0267371
0.0690863
0.125562
0.169783
0.197261
0.213268
0.222167
0.227025
0.229681
0.231154
0.231991
0.232473
0.23274
0.232861
0.232861
0.23274
0.232473
0.231993
0.231159
0.229687
0.227033
0.222176
0.213277
0.197268
0.169783
0.125556
0.0690619
0.0267244
0.0219056
0.019816
0.0225401
0.0585338
0.111454
0.155674
0.184993
0.202719
0.213099
0.21927
0.223047
0.225441
0.227002
0.228017
0.228635
0.228929
0.228928
0.228634
0.228017
0.227003
0.225444
0.223054
0.21928
0.213111
0.202733
0.185013
0.155694
0.111467
0.0585237
0.0225312
0.0198191
0.0174832
0.0183965
0.0476568
0.0951822
0.137734
0.167072
0.185271
0.196683
0.204235
0.209373
0.212997
0.215602
0.217423
0.218583
0.219149
0.219148
0.218581
0.217421
0.215602
0.212999
0.209377
0.204247
0.196699
0.185291
0.167106
0.137767
0.0952116
0.0476633
0.018391
0.0174854
0.0149223
0.014462
0.0368371
0.0761412
0.113222
0.13905
0.155889
0.167714
0.176664
0.18319
0.188281
0.192218
0.195091
0.19697
0.197901
0.1979
0.196966
0.195085
0.192214
0.188278
0.183182
0.176672
0.167735
0.155914
0.13908
0.113261
0.0761827
0.0368541
0.0144585
0.0149235
0.0121573
0.0108302
0.0260289
0.0526013
0.0782096
0.096304
0.109789
0.120846
0.130191
0.137984
0.144394
0.149488
0.153295
0.155828
0.157092
0.157088
0.155818
0.153281
0.149473
0.144382
0.137978
0.130195
0.120861
0.109813
0.0963358
0.0782493
0.0526455
0.0260505
0.0108279
0.0121575
0.00922824
0.00713447
0.0145138
0.0261348
0.0368561
0.0462027
0.0547469
0.0627644
0.0700752
0.0765416
0.0820835
0.0866345
0.0901217
0.0924812
0.0936688
0.0936638
0.0924669
0.0900994
0.0866062
0.0820548
0.076518
0.0700573
0.0627548
0.0547479
0.0462153
0.0368751
0.0261572
0.0145247
0.00713129
0.00922763
0.00575232
0.00127924
0.00515612
0.00907208
0.013152
0.017026
0.020687
0.0240922
0.0271778
0.0299229
0.0323059
0.034292
0.0358285
0.036874
0.0374023
0.0374001
0.0368678
0.0358186
0.0342793
0.0322923
0.0299104
0.0271659
0.0240819
0.0206792
0.0170215
0.0131495
0.00907119
0.00515482
0.00127821
0.00575169
0.0039525
0.00670744
0.00936474
0.0117411
0.0140499
0.0162046
0.0181608
0.0198129
0.021234
0.0224478
0.0234497
0.0242429
0.0248349
0.0252287
0.0254256
0.0254261
0.0252303
0.0248375
0.0242462
0.0234533
0.0224509
0.021237
0.0198155
0.0181629
0.0162061
0.0140507
0.0117412
0.00936432
0.00670684
0.00395212
0.00355372
0.00607644
0.00868452
0.011066
0.0134501
0.015704
0.0177789
0.0195514
0.0210871
0.022411
0.0235342
0.0244451
0.0251317
0.0255907
0.0258207
0.025821
0.0255917
0.0251334
0.0244473
0.0235368
0.022413
0.0210892
0.0195536
0.0177814
0.0157058
0.0134508
0.0110652
0.0086827
0.00607396
0.00355249
0.00510912
0.00160186
0.00742712
0.010994
0.0145752
0.0175994
0.0202145
0.0226159
0.0246988
0.0264752
0.0279425
0.0291049
0.0299743
0.0305544
0.0308448
0.0308443
0.030553
0.0299718
0.0291011
0.0279381
0.0264712
0.0246949
0.0226116
0.0202092
0.0175885
0.014565
0.0109854
0.00742272
0.00159862
0.00510783
0.00867358
0.010145
0.0132157
0.0167233
0.0218949
0.0273531
0.0324006
0.0367968
0.040781
0.0443201
0.0473142
0.0497548
0.0516044
0.0528248
0.0534329
0.0534296
0.0528146
0.0515813
0.0497183
0.0472735
0.044286
0.0407708
0.0367947
0.0324034
0.0273602
0.0219011
0.0167294
0.0132181
0.0101321
0.00867196
0.011564
0.0133609
0.0179009
0.0257337
0.0360602
0.0467907
0.0562272
0.0643922
0.0715982
0.0779856
0.0835056
0.0879931
0.0913789
0.0936282
0.0947424
0.0947324
0.0935985
0.0913297
0.0879298
0.083443
0.0779417
0.0715885
0.0644061
0.0562626
0.0468327
0.0360726
0.0257383
0.0179051
0.0133467
0.0115643
0.0144282
0.0158534
0.0228503
0.0360279
0.0547294
0.0743404
0.0904079
0.102768
0.112792
0.121395
0.128416
0.133903
0.137958
0.140621
0.141906
0.1419
0.140601
0.137927
0.133866
0.128384
0.121376
0.112802
0.102808
0.090481
0.0744169
0.054775
0.0360435
0.0228568
0.0158411
0.0144303
0.0171492
0.0180836
0.0286791
0.0472614
0.0738632
0.100587
0.122676
0.138402
0.149823
0.158538
0.165245
0.170302
0.173944
0.176301
0.177447
0.177443
0.17629
0.173928
0.170286
0.165233
0.158534
0.149833
0.138426
0.122723
0.100647
0.0739097
0.0472758
0.0286851
0.018072
0.0171517
0.0196646
0.0205452
0.0340315
0.0584322
0.0912614
0.122863
0.147173
0.164347
0.176236
0.184609
0.190606
0.194889
0.197853
0.199723
0.200625
0.200623
0.199717
0.197844
0.194879
0.190598
0.184604
0.176235
0.164352
0.147187
0.122886
0.091265
0.0584149
0.0340201
0.0205393
0.0196675
0.0219697
0.0230241
0.0390676
0.0688741
0.106139
0.139957
0.164944
0.182225
0.193818
0.201556
0.206751
0.21024
0.212532
0.213926
0.214585
0.214583
0.213921
0.212525
0.210232
0.206743
0.201548
0.193811
0.18222
0.164941
0.139948
0.106095
0.0687981
0.0390192
0.0230175
0.0219739
0.0240687
0.0253345
0.0439133
0.0787089
0.118958
0.153239
0.177836
0.194425
0.205231
0.212143
0.216529
0.219296
0.221007
0.221999
0.222453
0.222452
0.221995
0.221002
0.219289
0.216521
0.212134
0.205222
0.194416
0.177824
0.153214
0.11889
0.0786101
0.0438624
0.0253297
0.0240727
0.0259072
0.0274137
0.0483433
0.0873623
0.130115
0.163756
0.1873
0.202788
0.212582
0.218603
0.222229
0.224376
0.225616
0.226292
0.226589
0.226588
0.226289
0.225612
0.22437
0.222223
0.218595
0.212574
0.202779
0.187288
0.163734
0.130069
0.08728
0.0483211
0.0274117
0.0259107
0.0274646
0.029226
0.0521827
0.0945242
0.138453
0.171695
0.194169
0.208516
0.217296
0.222482
0.225445
0.227086
0.227962
0.228402
0.228584
0.228583
0.228401
0.227959
0.227082
0.22544
0.222476
0.21729
0.208509
0.194161
0.17168
0.13842
0.0944607
0.052169
0.0292257
0.0274675
0.0287267
0.0307356
0.0553844
0.10027
0.144784
0.177531
0.199054
0.212395
0.220296
0.224776
0.227205
0.228456
0.229065
0.229338
0.22944
0.229439
0.229337
0.229063
0.228454
0.227202
0.224773
0.220292
0.212392
0.19905
0.177523
0.144762
0.100224
0.0553755
0.0307364
0.0287288
0.0296823
0.0319077
0.057888
0.104645
0.149431
0.181673
0.202407
0.214948
0.222162
0.226104
0.228135
0.229108
0.229533
0.229695
0.229745
0.229745
0.229695
0.229532
0.229108
0.228134
0.226103
0.222161
0.214948
0.202407
0.181671
0.149421
0.104621
0.0578845
0.0319094
0.0296837
0.0303235
0.0327113
0.0596112
0.107627
0.152515
0.184351
0.204516
0.2165
0.223246
0.226827
0.228599
0.229395
0.229705
0.229801
0.22982
0.229821
0.229802
0.229706
0.229397
0.228601
0.22683
0.223249
0.216505
0.204521
0.184356
0.152516
0.107619
0.0596121
0.0327134
0.0303241
0.0306451
0.0331236
0.0604938
0.109132
0.154055
0.18567
0.205536
0.217236
0.223744
0.227146
0.22879
0.2295
0.229756
0.229821
0.229827
0.229827
0.229823
0.229759
0.229504
0.228795
0.227152
0.223752
0.217245
0.205547
0.185681
0.154066
0.109137
0.0604981
0.0331257
0.030645
0.0306449
0.0331241
0.0604946
0.109132
0.154054
0.185668
0.205535
0.217235
0.223744
0.227146
0.22879
0.2295
0.229757
0.229822
0.229828
0.229829
0.229825
0.229761
0.229506
0.228797
0.227156
0.223756
0.217249
0.205552
0.185687
0.154075
0.109151
0.0605032
0.033127
0.0306441
0.0303229
0.0327133
0.0596144
0.107627
0.152513
0.184348
0.204513
0.216498
0.223244
0.226826
0.228599
0.229396
0.229708
0.229804
0.229825
0.229826
0.229807
0.229712
0.229403
0.228609
0.226839
0.22326
0.216517
0.204535
0.184374
0.152543
0.10766
0.059628
0.0327173
0.0303213
0.0296814
0.0319111
0.0578939
0.104648
0.14943
0.181669
0.202402
0.214943
0.222158
0.226101
0.228134
0.229109
0.229536
0.2297
0.229751
0.229752
0.229703
0.229541
0.229118
0.228145
0.226116
0.222176
0.214965
0.202428
0.181701
0.149471
0.104696
0.0579125
0.0319157
0.029679
0.0287253
0.0307399
0.0553945
0.100284
0.144788
0.177527
0.199046
0.212387
0.220289
0.224771
0.227202
0.228456
0.229068
0.229344
0.229448
0.229449
0.229348
0.229074
0.228465
0.227214
0.224786
0.220308
0.212411
0.199075
0.177564
0.14484
0.100351
0.0554184
0.0307452
0.0287222
0.0274627
0.029231
0.0521987
0.094549
0.13846
0.171689
0.194158
0.208502
0.217284
0.222472
0.225439
0.227084
0.227964
0.228408
0.228593
0.228594
0.228413
0.227971
0.227093
0.225451
0.222487
0.217303
0.208525
0.194187
0.171729
0.138518
0.0946272
0.0522263
0.0292369
0.0274591
0.0259047
0.0274186
0.0483626
0.0873964
0.130126
0.163749
0.187283
0.202769
0.212564
0.218588
0.222218
0.22437
0.225616
0.226297
0.226597
0.226599
0.226302
0.225624
0.22438
0.22223
0.218601
0.212579
0.202788
0.187309
0.163787
0.130186
0.0874792
0.0483953
0.0274253
0.0259006
0.0240655
0.0253393
0.0439409
0.0787509
0.118984
0.153231
0.177815
0.194401
0.205207
0.212122
0.216513
0.219286
0.221004
0.222001
0.222461
0.222463
0.222008
0.221015
0.219298
0.216525
0.212133
0.205218
0.194412
0.177831
0.153261
0.119047
0.0788287
0.0439838
0.0253468
0.0240614
0.021966
0.0230282
0.0390951
0.068906
0.106146
0.139938
0.164918
0.182196
0.193788
0.201529
0.20673
0.210227
0.212527
0.213927
0.214591
0.214594
0.213936
0.212541
0.210242
0.206744
0.201539
0.193792
0.182196
0.164917
0.139942
0.106171
0.0689552
0.0391303
0.0230353
0.0219623
0.0196619
0.0205474
0.0340404
0.0584385
0.0912503
0.122839
0.147145
0.164315
0.176202
0.184579
0.190584
0.194877
0.19785
0.199727
0.200634
0.200639
0.19974
0.19787
0.194899
0.190602
0.184589
0.1762
0.164301
0.147121
0.12281
0.0912312
0.0584472
0.0340579
0.0205531
0.0196601
0.0171462
0.018085
0.0286759
0.0472489
0.0738315
0.100553
0.122642
0.138364
0.149788
0.158515
0.165233
0.170302
0.173955
0.176319
0.177471
0.177478
0.17634
0.173988
0.170338
0.165263
0.158532
0.149783
0.138335
0.122594
0.100488
0.0737719
0.0472252
0.028674
0.0180949
0.0171451
0.0144246
0.0158569
0.0228471
0.0360153
0.0546973
0.0742937
0.0903564
0.102735
0.112778
0.121405
0.128434
0.133936
0.138006
0.14068
0.141972
0.141984
0.140715
0.13806
0.133999
0.128491
0.12145
0.112786
0.102706
0.090289
0.0742118
0.0546278
0.0359801
0.0228396
0.0158663
0.014424
0.0115617
0.0133654
0.017891
0.0257352
0.0360515
0.046758
0.0561974
0.0643787
0.0716026
0.0780151
0.0835587
0.0880661
0.0914681
0.0937362
0.0948727
0.0948886
0.0937821
0.0915388
0.0881535
0.0836435
0.0780787
0.071635
0.0643799
0.0561657
0.0467065
0.0360034
0.0257063
0.0178815
0.0133727
0.011562
0.00867269
0.0101504
0.0132093
0.016722
0.0218963
0.0273522
0.0323983
0.0367968
0.0407846
0.0443324
0.0473443
0.0497921
0.0516435
0.0528705
0.0534861
0.0534907
0.0528842
0.0516668
0.0498337
0.0473897
0.0443627
0.0408077
0.0368109
0.0323999
0.0273399
0.0218819
0.0167108
0.0132026
0.0101527
0.00867358
0.00510966
0.00160383
0.00743056
0.0109972
0.0145778
0.017602
0.0202187
0.0226196
0.0247023
0.02648
0.0279521
0.0291179
0.0299893
0.030571
0.0308628
0.0308636
0.0305732
0.0299928
0.0291228
0.0279575
0.0264842
0.024707
0.0226248
0.0202248
0.017614
0.0145889
0.0110053
0.0074334
0.00160593
0.00511079
0.00355419
0.00607697
0.00868417
0.0110642
0.0134468
0.0156997
0.0177742
0.0195478
0.0210836
0.0224073
0.0235278
0.0244379
0.0251239
0.0255822
0.0258114
0.025811
0.0255808
0.0251218
0.0244352
0.0235249
0.0224057
0.0210823
0.0195467
0.0177731
0.0156992
0.0134471
0.0110649
0.00868506
0.00607757
0.0035547
0.00338096
0.00574689
0.00826038
0.0105737
0.0128924
0.0150817
0.0170926
0.0188283
0.0203495
0.0216668
0.0227659
0.0236468
0.0243106
0.0247549
0.0249776
0.0249777
0.0247553
0.0243112
0.0236475
0.0227665
0.0216676
0.02035
0.0188282
0.0170916
0.0150806
0.0128916
0.0105733
0.00826045
0.00574736
0.00338129
0.00490529
0.00258641
0.0107721
0.016091
0.021183
0.0256746
0.029475
0.0324351
0.0347023
0.0364218
0.0377176
0.0386865
0.039383
0.0398361
0.0400597
0.0400595
0.0398355
0.0393819
0.0386847
0.0377146
0.0364174
0.0346965
0.0324287
0.0294691
0.0256731
0.021183
0.0160912
0.0107696
0.00258864
0.00490582
0.00831616
0.013209
0.0172604
0.0210024
0.0240497
0.0271951
0.0302271
0.0331141
0.0358154
0.0383199
0.0404948
0.0422806
0.0436486
0.0445845
0.045057
0.045054
0.0445761
0.0436384
0.04227
0.0404833
0.0383078
0.0357972
0.0330988
0.030216
0.0271866
0.0240449
0.0209949
0.0172523
0.0132132
0.00831656
0.0110807
0.0183794
0.0233115
0.0247524
0.0286239
0.0349606
0.0415712
0.0477384
0.0533295
0.0581814
0.0621431
0.0653363
0.0677489
0.0693685
0.0701854
0.0701867
0.0693731
0.0677582
0.0653504
0.0621591
0.0581932
0.0533246
0.0477362
0.041577
0.034974
0.0286506
0.0247551
0.0233081
0.018386
0.0110809
0.0137958
0.0223157
0.0264247
0.029427
0.0386701
0.0503557
0.0616329
0.07157
0.0798758
0.0869692
0.0929009
0.0976411
0.10115
0.103473
0.104693
0.104692
0.103475
0.101155
0.0976482
0.0929083
0.0869725
0.0798663
0.0715482
0.0615907
0.050316
0.0386846
0.0294273
0.0264215
0.022322
0.0137961
0.0164051
0.0257311
0.0286973
0.0358468
0.0505075
0.068134
0.0852764
0.100735
0.113032
0.122656
0.130191
0.135924
0.139949
0.142519
0.143796
0.143798
0.142524
0.139955
0.135926
0.130193
0.122658
0.113033
0.100729
0.0852364
0.0680942
0.0504874
0.0358467
0.0286947
0.0257383
0.0164067
0.0188681
0.0283023
0.0310978
0.0435745
0.0628874
0.0858665
0.109379
0.128518
0.142558
0.152862
0.160494
0.166086
0.169974
0.172423
0.173614
0.173615
0.172428
0.169979
0.16609
0.160498
0.152865
0.14256
0.128517
0.109371
0.0858425
0.0628827
0.0435726
0.0310932
0.028305
0.0188707
0.0211399
0.0303637
0.0341665
0.0512336
0.0748424
0.103151
0.129588
0.149866
0.164506
0.174893
0.182252
0.18742
0.190916
0.193078
0.194113
0.194114
0.193081
0.19092
0.187423
0.182255
0.174897
0.164509
0.149867
0.129584
0.103142
0.0748627
0.0512703
0.0341559
0.0303675
0.0211427
0.0231754
0.0320368
0.03755
0.0576933
0.0853728
0.117844
0.145178
0.165583
0.180071
0.190123
0.197018
0.201682
0.204737
0.206579
0.207445
0.207445
0.20658
0.204738
0.201684
0.197019
0.190125
0.180072
0.165581
0.145171
0.117833
0.0853883
0.0577315
0.0375347
0.0320438
0.0231791
0.0249689
0.0334016
0.0408836
0.0636871
0.0953199
0.129768
0.157103
0.177036
0.190957
0.200427
0.206749
0.210888
0.213508
0.215044
0.215751
0.215751
0.215044
0.213508
0.210888
0.206749
0.200426
0.190955
0.177032
0.157094
0.129755
0.0953034
0.0637121
0.0408582
0.0334107
0.0249731
0.0265
0.0345194
0.0439479
0.0689515
0.103969
0.139061
0.166067
0.185311
0.198503
0.207298
0.213021
0.216653
0.218876
0.220138
0.220707
0.220707
0.220137
0.218875
0.216651
0.213018
0.207294
0.198499
0.185304
0.166055
0.139041
0.103941
0.0689662
0.0439262
0.0345296
0.0265044
0.0277495
0.035421
0.0465311
0.0732779
0.110848
0.146128
0.172645
0.191179
0.203652
0.211798
0.216968
0.220152
0.222036
0.223071
0.223526
0.223525
0.22307
0.222034
0.220149
0.216964
0.211792
0.203645
0.19117
0.172631
0.146105
0.110816
0.0732876
0.0465189
0.0354309
0.0277538
0.0287014
0.0361124
0.0484564
0.0765094
0.115907
0.151204
0.177254
0.195177
0.207043
0.214648
0.219367
0.222193
0.223812
0.224673
0.225041
0.225041
0.224671
0.22381
0.222189
0.219362
0.214642
0.207035
0.195166
0.17724
0.151181
0.115874
0.0765079
0.0484475
0.0361202
0.0287054
0.0293437
0.036595
0.0497787
0.0786384
0.119208
0.154476
0.180178
0.197661
0.209095
0.216319
0.220722
0.2233
0.224739
0.225482
0.225793
0.225792
0.22548
0.224736
0.223296
0.220716
0.216312
0.209087
0.197651
0.180164
0.154455
0.119177
0.0786324
0.0497722
0.0365993
0.0293473
0.0296681
0.0368725
0.0504574
0.0797078
0.120836
0.156077
0.181595
0.19885
0.210062
0.217089
0.22133
0.223783
0.225131
0.225815
0.226097
0.226096
0.225813
0.225127
0.223778
0.221324
0.217082
0.210054
0.198841
0.181583
0.156058
0.120808
0.0796982
0.0504532
0.0368722
0.029671
0.0296684
0.0368715
0.0504583
0.0797101
0.120833
0.156073
0.181592
0.198849
0.210062
0.21709
0.221332
0.223785
0.225133
0.225817
0.226098
0.226098
0.225814
0.225129
0.22378
0.221325
0.217083
0.210054
0.198839
0.18158
0.156055
0.120807
0.0796967
0.0504568
0.0368708
0.0296709
0.0293449
0.0366014
0.0497825
0.0786452
0.119201
0.154466
0.18017
0.197658
0.209096
0.216323
0.220728
0.223306
0.224745
0.225487
0.225797
0.225796
0.225484
0.22474
0.2233
0.22072
0.216315
0.209087
0.197648
0.180158
0.154448
0.119174
0.0786277
0.0497834
0.0365962
0.0293469
0.0287035
0.0361238
0.0484633
0.0765192
0.115895
0.151188
0.177245
0.195175
0.207048
0.214658
0.219379
0.222205
0.223822
0.224681
0.225048
0.225047
0.224677
0.223816
0.222196
0.219369
0.214647
0.207037
0.195163
0.17723
0.151169
0.115866
0.0764975
0.0484671
0.0361161
0.0287049
0.0277523
0.0354366
0.0465395
0.0732824
0.11083
0.14611
0.172639
0.191185
0.203666
0.211817
0.216988
0.22017
0.222051
0.223083
0.223535
0.223534
0.223078
0.222043
0.220159
0.216975
0.211802
0.203651
0.191169
0.172621
0.146087
0.110798
0.0732528
0.0465473
0.0354269
0.0277532
0.0265035
0.0345373
0.0439409
0.0689474
0.103949
0.139049
0.166072
0.185331
0.198532
0.207329
0.213051
0.216678
0.218896
0.220153
0.220718
0.220716
0.220147
0.218885
0.216664
0.213033
0.20731
0.198511
0.185309
0.166048
0.13902
0.103916
0.068919
0.0439653
0.0345277
0.0265039
0.024973
0.0334213
0.0408858
0.0636829
0.095304
0.129769
0.157126
0.177076
0.191004
0.200473
0.206789
0.210919
0.213531
0.215059
0.215761
0.215759
0.215051
0.213518
0.210902
0.206768
0.200449
0.190979
0.177049
0.157095
0.129733
0.0952674
0.0636532
0.0409082
0.0334133
0.0249729
0.02318
0.0320576
0.037562
0.0576902
0.0853617
0.11786
0.145227
0.165648
0.180138
0.190183
0.197065
0.201716
0.204757
0.206589
0.207449
0.207446
0.206581
0.204743
0.201695
0.197041
0.190157
0.180111
0.165619
0.145193
0.117819
0.08532
0.0576625
0.0375751
0.0320527
0.0231794
0.0211445
0.0303841
0.0341854
0.051234
0.0748445
0.103192
0.129667
0.149959
0.164592
0.174962
0.1823
0.187448
0.190928
0.193078
0.194105
0.194102
0.193068
0.190911
0.187425
0.182274
0.174934
0.164565
0.149934
0.129639
0.103157
0.0748141
0.0512146
0.0341953
0.030384
0.0211436
0.0188719
0.0283199
0.0311156
0.0435973
0.0628996
0.0859188
0.109479
0.128621
0.142648
0.152927
0.160531
0.166099
0.169969
0.172407
0.173592
0.173589
0.172396
0.16995
0.166076
0.160506
0.152902
0.142625
0.128605
0.10946
0.0859007
0.0628827
0.0435799
0.0311302
0.0283256
0.0188701
0.0164083
0.0257418
0.0287037
0.0358521
0.0505101
0.0681605
0.0853531
0.100821
0.113099
0.122696
0.130204
0.135915
0.139927
0.142492
0.143771
0.143768
0.142479
0.139904
0.135895
0.130186
0.122678
0.113082
0.10081
0.0853531
0.0681631
0.0505033
0.0358361
0.0287189
0.0257481
0.0164068
0.0137987
0.0223155
0.0264133
0.0294003
0.0386357
0.0503585
0.0616523
0.0715839
0.0798828
0.0869665
0.0928896
0.0976244
0.101132
0.103459
0.104697
0.104693
0.103442
0.101102
0.0975912
0.0928613
0.0869433
0.0798681
0.0715741
0.061657
0.050361
0.0386231
0.0293858
0.0264225
0.0223235
0.0137981
0.0110818
0.0183676
0.0232918
0.0247108
0.0285748
0.0349329
0.0415633
0.0477493
0.0533371
0.0581775
0.0621344
0.0653248
0.0677352
0.0693514
0.0701637
0.0701581
0.0693352
0.0677104
0.0652953
0.0621075
0.0581597
0.0533313
0.0477295
0.0415454
0.0349161
0.028553
0.0246967
0.0232972
0.018377
0.0110819
0.00831586
0.0131917
0.0172443
0.0209755
0.0240231
0.0271797
0.030226
0.0331265
0.0358407
0.0383418
0.0405053
0.0422834
0.0436483
0.0445832
0.0450593
0.0450643
0.0445974
0.0436685
0.0423008
0.0405218
0.0383616
0.0358574
0.0331417
0.0302346
0.0271811
0.0240175
0.020971
0.017248
0.0132012
0.00831663
0.00490437
0.00258343
0.0107622
0.0160832
0.0211802
0.0256784
0.0294835
0.0324483
0.034718
0.0364368
0.0377295
0.038695
0.0393884
0.0398387
0.0400603
0.040059
0.0398354
0.0393838
0.0386905
0.0377265
0.036437
0.0347213
0.0324546
0.0294915
0.0256825
0.0211828
0.0160853
0.0107654
0.00258662
0.00490509
0.00338022
0.00574564
0.00825978
0.0105742
0.0128942
0.0150846
0.0170959
0.0188304
0.0203513
0.0216682
0.022768
0.0236486
0.0243117
0.0247554
0.0249776
0.0249774
0.0247546
0.0243105
0.0236468
0.0227658
0.0216648
0.0203478
0.018827
0.0170933
0.0150823
0.0128925
0.0105731
0.00825956
0.00574613
0.00338056
0.00332782
0.00564855
0.00813462
0.0104481
0.0127609
0.0149471
0.016958
0.0186855
0.0201906
0.0214895
0.0225775
0.0234514
0.024109
0.0245485
0.024769
0.0247693
0.0245496
0.0241107
0.0234537
0.0225803
0.0214926
0.0201938
0.0186887
0.016961
0.0149498
0.0127633
0.01045
0.00813595
0.00564943
0.00332826
0.00484456
0.00298631
0.0119866
0.0183607
0.0243971
0.0298398
0.0346392
0.0386851
0.0419969
0.0446494
0.0467424
0.0483485
0.0495182
0.0502834
0.0506631
0.050666
0.050292
0.0495319
0.0483667
0.046764
0.0446724
0.0420194
0.0387062
0.0346573
0.0298519
0.0244019
0.01836
0.0119839
0.0029874
0.00484489
0.00819389
0.0142135
0.0197114
0.0253644
0.0301603
0.0346348
0.0387947
0.0424214
0.0453163
0.0474884
0.0490986
0.050271
0.0510977
0.0516316
0.0518959
0.051899
0.051641
0.0511139
0.0502947
0.0491266
0.0475156
0.0453382
0.0424369
0.0388001
0.0346273
0.0301418
0.025346
0.0197012
0.0142136
0.00819388
0.010945
0.0204271
0.0275451
0.0310764
0.0339195
0.0366937
0.03992
0.0432991
0.046657
0.0500641
0.0531618
0.0557685
0.0578028
0.0591985
0.0599086
0.05991
0.059203
0.0578115
0.0557819
0.0531779
0.0500785
0.0466639
0.0432906
0.0398911
0.0366466
0.0338685
0.0310491
0.027536
0.0204269
0.0109442
0.0136321
0.0256289
0.0325936
0.0353872
0.0371642
0.0425842
0.0505789
0.0582554
0.0649206
0.0708385
0.0757955
0.0797954
0.0828787
0.084976
0.0860215
0.0860257
0.0849871
0.0828952
0.0798132
0.075807
0.0708352
0.0649116
0.0582435
0.0505732
0.042565
0.0371137
0.0353715
0.0325947
0.0256324
0.0136308
0.0162089
0.0303278
0.0363724
0.0383695
0.0428647
0.0549276
0.068287
0.0795476
0.0888687
0.0965436
0.102897
0.108065
0.112206
0.115054
0.116484
0.116479
0.115038
0.112184
0.108047
0.102875
0.096526
0.0888486
0.0795261
0.0682729
0.0549148
0.0428499
0.0383742
0.0363867
0.0303348
0.0162074
0.0186164
0.034429
0.0393027
0.0411905
0.0513795
0.0684606
0.085674
0.101515
0.115368
0.126211
0.134472
0.140577
0.144974
0.147859
0.149287
0.149285
0.147852
0.144963
0.140564
0.134447
0.126193
0.115362
0.101517
0.0856665
0.0684572
0.0513746
0.0412211
0.0393309
0.0344408
0.0186148
0.0208258
0.037945
0.0414106
0.0446742
0.0607441
0.0810753
0.102561
0.123095
0.139206
0.151025
0.159624
0.165795
0.17008
0.172801
0.174125
0.174125
0.172801
0.17008
0.165795
0.159623
0.151031
0.139219
0.123116
0.102578
0.0810934
0.0607596
0.0446967
0.0414574
0.0379605
0.0208244
0.022812
0.0409126
0.0430481
0.0494381
0.0695541
0.0926629
0.1184
0.140587
0.157259
0.169299
0.17785
0.183828
0.187869
0.190373
0.191574
0.191574
0.190376
0.187873
0.183834
0.177858
0.169312
0.157276
0.14061
0.118429
0.0927067
0.0695995
0.0494558
0.0430976
0.0409287
0.0228108
0.0245542
0.0433567
0.0444409
0.0542788
0.0770669
0.103352
0.131621
0.153976
0.170512
0.182307
0.190561
0.196223
0.199969
0.202246
0.203323
0.203324
0.202249
0.199974
0.196231
0.190571
0.182321
0.17053
0.153997
0.131647
0.103389
0.077123
0.0542827
0.0444837
0.0433734
0.0245534
0.0260345
0.0453219
0.0456637
0.0588064
0.083562
0.112917
0.141764
0.163963
0.180072
0.191425
0.199267
0.20456
0.208
0.210055
0.211015
0.211016
0.210058
0.208004
0.204567
0.199277
0.191438
0.180088
0.163982
0.141787
0.112952
0.0836175
0.058801
0.0457023
0.0453406
0.0260343
0.0272378
0.0468457
0.0467214
0.0624985
0.0888126
0.120526
0.149426
0.171232
0.186829
0.197696
0.205108
0.210038
0.213189
0.215042
0.215898
0.215899
0.215044
0.213192
0.210043
0.205116
0.197707
0.186842
0.171247
0.149447
0.120562
0.0888734
0.0625165
0.0467556
0.0468659
0.0272381
0.0281514
0.0479619
0.0476331
0.0653284
0.0927411
0.126093
0.154895
0.176288
0.191418
0.201852
0.208887
0.213503
0.216411
0.218098
0.218868
0.218868
0.218098
0.216412
0.213506
0.208891
0.201858
0.191426
0.176298
0.15491
0.126122
0.0927948
0.0653404
0.0476582
0.0479818
0.0281522
0.0287654
0.0486877
0.0483203