/*--------------------------------*- C++ -*----------------------------------*\
| =========                 |                                                 |
| \\      /  F ield         | OpenFOAM: The Open Source CFD Toolbox           |
|  \\    /   O peration     | Version:  2312                                  |
|   \\  /    A nd           | Website:  www.openfoam.com                      |
|    \\/     M anipulation  |                                                 |
\*---------------------------------------------------------------------------*/
FoamFile
{
    version     2.0;
    format      ascii;
    arch        "LSB;label=32;scalar=64";
    class       volScalarField;
    location    "250";
    object      epsilon;
}
// * * * * * * * * * * * * * * * * * * * * * * * * * * * * * * * * * * * * * //

dimensions      [0 2 -3 0 0 0 0];

internalField   nonuniform List<scalar> 
27000
(
0.00152976
0.000225092
0.000110953
7.00765e-05
5.19709e-05
4.16774e-05
3.49732e-05
3.03355e-05
2.70033e-05
2.45629e-05
2.27481e-05
2.14177e-05
2.04881e-05
1.98988e-05
1.96127e-05
1.96121e-05
1.98971e-05
2.04853e-05
2.14138e-05
2.27435e-05
2.45589e-05
2.69989e-05
3.03306e-05
3.49682e-05
4.16732e-05
5.19694e-05
7.00822e-05
0.000110978
0.000225174
0.00153022
0.000151135
3.26361e-05
1.39546e-05
9.3252e-06
7.19217e-06
5.9595e-06
5.12134e-06
4.50886e-06
4.04999e-06
3.70637e-06
3.44902e-06
3.25911e-06
3.12547e-06
3.04039e-06
2.99899e-06
2.99894e-06
3.04023e-06
3.12523e-06
3.25882e-06
3.44876e-06
3.70629e-06
4.05001e-06
4.50899e-06
5.12166e-06
5.96019e-06
7.19347e-06
9.32771e-06
1.39614e-05
3.26503e-05
0.000151162
0.000100305
1.54321e-05
5.15697e-06
2.55937e-06
1.90853e-06
1.62393e-06
1.44554e-06
1.31673e-06
1.21878e-06
1.1437e-06
1.08647e-06
1.04371e-06
1.01326e-06
9.93685e-07
9.84126e-07
9.84156e-07
9.93774e-07
1.0134e-06
1.04391e-06
1.08673e-06
1.14403e-06
1.21915e-06
1.31705e-06
1.44574e-06
1.62392e-06
1.9083e-06
2.55948e-06
5.15994e-06
1.5441e-05
0.000100315
6.66898e-05
1.03386e-05
2.85028e-06
1.38545e-06
9.88171e-07
8.48521e-07
7.77651e-07
7.30965e-07
6.96494e-07
6.70303e-07
6.50129e-07
6.34888e-07
6.23944e-07
6.16872e-07
6.13411e-07
6.13439e-07
6.16952e-07
6.2407e-07
6.3505e-07
6.50312e-07
6.70478e-07
6.96624e-07
7.30994e-07
7.7751e-07
8.48163e-07
9.87634e-07
1.3851e-06
2.85097e-06
1.03416e-05
6.66858e-05
4.92085e-05
7.28824e-06
2.05415e-06
1.0375e-06
7.44517e-07
6.36716e-07
5.88667e-07
5.61858e-07
5.43991e-07
5.32284e-07
5.23503e-07
5.1678e-07
5.11933e-07
5.08797e-07
5.07261e-07
5.0728e-07
5.08852e-07
5.12016e-07
5.16877e-07
5.23591e-07
5.32325e-07
5.43987e-07
5.61775e-07
5.88456e-07
6.36395e-07
7.44152e-07
1.03727e-06
2.05443e-06
7.28886e-06
4.91993e-05
3.86109e-05
5.62971e-06
1.63625e-06
8.76292e-07
6.47334e-07
5.5852e-07
5.19448e-07
4.99922e-07
4.88752e-07
4.81853e-07
4.77216e-07
4.73914e-07
4.716e-07
4.70122e-07
4.69405e-07
4.69417e-07
4.70157e-07
4.71648e-07
4.73964e-07
4.7725e-07
4.81851e-07
4.88702e-07
4.99812e-07
5.19283e-07
5.58355e-07
6.47177e-07
8.76289e-07
1.63656e-06
5.62951e-06
3.86009e-05
3.16143e-05
4.60527e-06
1.39285e-06
7.81717e-07
5.95401e-07
5.22123e-07
4.8947e-07
4.73902e-07
4.65914e-07
4.61499e-07
4.58858e-07
4.57161e-07
4.56046e-07
4.55359e-07
4.55032e-07
4.55039e-07
4.55378e-07
4.56071e-07
4.57183e-07
4.58865e-07
4.61479e-07
4.65862e-07
4.73819e-07
4.89374e-07
5.22049e-07
5.95394e-07
7.81881e-07
1.39325e-06
4.60486e-06
3.16047e-05
2.67334e-05
3.91409e-06
1.23251e-06
7.19693e-07
5.62051e-07
5.01472e-07
4.74555e-07
4.62057e-07
4.56076e-07
4.53102e-07
4.51537e-07
4.50653e-07
4.50127e-07
4.49823e-07
4.49683e-07
4.49687e-07
4.49833e-07
4.50139e-07
4.5066e-07
4.51534e-07
4.53083e-07
4.56042e-07
4.62015e-07
4.74524e-07
5.01479e-07
5.62122e-07
7.19924e-07
1.23285e-06
3.91334e-06
2.67224e-05
2.31789e-05
3.41869e-06
1.11708e-06
6.75614e-07
5.39106e-07
4.88335e-07
4.6619e-07
4.56218e-07
4.51705e-07
4.49657e-07
4.48708e-07
4.48247e-07
4.4801e-07
4.47886e-07
4.47832e-07
4.47834e-07
4.47891e-07
4.48015e-07
4.4825e-07
4.48705e-07
4.49647e-07
4.51694e-07
4.56213e-07
4.66208e-07
4.88394e-07
5.39216e-07
6.75848e-07
1.11734e-06
3.41787e-06
2.31695e-05
2.05877e-05
3.05711e-06
1.03118e-06
6.43268e-07
5.25053e-07
4.80021e-07
4.6121e-07
4.53126e-07
4.49681e-07
4.48248e-07
4.47663e-07
4.47425e-07
4.47324e-07
4.4728e-07
4.47263e-07
4.47264e-07
4.47283e-07
4.47327e-07
4.47426e-07
4.47664e-07
4.48249e-07
4.49688e-07
4.53147e-07
4.61259e-07
4.80113e-07
5.25202e-07
6.43482e-07
1.03139e-06
3.0564e-06
2.05802e-05
1.86962e-05
2.79286e-06
9.67006e-07
6.18569e-07
5.13584e-07
4.74083e-07
4.57984e-07
4.51346e-07
4.48678e-07
4.47657e-07
4.47291e-07
4.47169e-07
4.47131e-07
4.47121e-07
4.47118e-07
4.47119e-07
4.47122e-07
4.47133e-07
4.47171e-07
4.47295e-07
4.47665e-07
4.48695e-07
4.5138e-07
4.58045e-07
4.7418e-07
5.13723e-07
6.18741e-07
9.67155e-07
2.79229e-06
1.86905e-05
1.73337e-05
2.6023e-06
9.20006e-07
6.00233e-07
5.04899e-07
4.69715e-07
4.55767e-07
4.50236e-07
4.48131e-07
4.47389e-07
4.47156e-07
4.47096e-07
4.47087e-07
4.47089e-07
4.47092e-07
4.47092e-07
4.4709e-07
4.47089e-07
4.47099e-07
4.47161e-07
4.47399e-07
4.48151e-07
4.5027e-07
4.55823e-07
4.69798e-07
5.05008e-07
6.00357e-07
9.2011e-07
2.6019e-06
1.73295e-05
1.63902e-05
2.4702e-06
8.87054e-07
5.87182e-07
4.98715e-07
4.66639e-07
4.54256e-07
4.49522e-07
4.47811e-07
4.47253e-07
4.47101e-07
4.47075e-07
4.47079e-07
4.47087e-07
4.47091e-07
4.47091e-07
4.47087e-07
4.47081e-07
4.47077e-07
4.47106e-07
4.47262e-07
4.47827e-07
4.49549e-07
4.54298e-07
4.66698e-07
4.98787e-07
5.87249e-07
8.8713e-07
2.46997e-06
1.63875e-05
1.57958e-05
2.38688e-06
8.66091e-07
5.78729e-07
4.94738e-07
4.64679e-07
4.53309e-07
4.49087e-07
4.47625e-07
4.47179e-07
4.47074e-07
4.47067e-07
4.47077e-07
4.47087e-07
4.47091e-07
4.47091e-07
4.47087e-07
4.47078e-07
4.47068e-07
4.47077e-07
4.47184e-07
4.47634e-07
4.49103e-07
4.53333e-07
4.64712e-07
4.94779e-07
5.7877e-07
8.66158e-07
2.38683e-06
1.57944e-05
1.55087e-05
2.3466e-06
8.55905e-07
5.74597e-07
4.92792e-07
4.63722e-07
4.52849e-07
4.48878e-07
4.47535e-07
4.47144e-07
4.47061e-07
4.47061e-07
4.47075e-07
4.47085e-07
4.47089e-07
4.47089e-07
4.47084e-07
4.47074e-07
4.4706e-07
4.4706e-07
4.47143e-07
4.47535e-07
4.48879e-07
4.52853e-07
4.6373e-07
4.92805e-07
5.74619e-07
8.55969e-07
2.34673e-06
1.55087e-05
1.55094e-05
2.34668e-06
8.55905e-07
5.74588e-07
4.92779e-07
4.6371e-07
4.52839e-07
4.48869e-07
4.47529e-07
4.47139e-07
4.47057e-07
4.47057e-07
4.47071e-07
4.4708e-07
4.47085e-07
4.47084e-07
4.47079e-07
4.47069e-07
4.47055e-07
4.47053e-07
4.47132e-07
4.4752e-07
4.48857e-07
4.52823e-07
4.63693e-07
4.92766e-07
5.74592e-07
8.55968e-07
2.347e-06
1.55109e-05
1.57979e-05
2.38712e-06
8.66089e-07
5.787e-07
4.94699e-07
4.64642e-07
4.53278e-07
4.49063e-07
4.47606e-07
4.47164e-07
4.47062e-07
4.47054e-07
4.47065e-07
4.47073e-07
4.47077e-07
4.47077e-07
4.47072e-07
4.47063e-07
4.47051e-07
4.47056e-07
4.47154e-07
4.4759e-07
4.49038e-07
4.53244e-07
4.64599e-07
4.94656e-07
5.78682e-07
8.66146e-07
2.38764e-06
1.5801e-05
1.6394e-05
2.4706e-06
8.8704e-07
5.87124e-07
4.98644e-07
4.66576e-07
4.54205e-07
4.49484e-07
4.47782e-07
4.4723e-07
4.4708e-07
4.47054e-07
4.47057e-07
4.47063e-07
4.47066e-07
4.47065e-07
4.47062e-07
4.47056e-07
4.47051e-07
4.47075e-07
4.47219e-07
4.47762e-07
4.4945e-07
4.54154e-07
4.66508e-07
4.98567e-07
5.87075e-07
8.87081e-07
2.47134e-06
1.63988e-05
1.73393e-05
2.60287e-06
9.1996e-07
6.00121e-07
5.04789e-07
4.69625e-07
4.55699e-07
4.50187e-07
4.48096e-07
4.4736e-07
4.47128e-07
4.47067e-07
4.47054e-07
4.47053e-07
4.47053e-07
4.47052e-07
4.47052e-07
4.47054e-07
4.47066e-07
4.47126e-07
4.47353e-07
4.48079e-07
4.50153e-07
4.5564e-07
4.69536e-07
5.04675e-07
6.00013e-07
9.19966e-07
2.60383e-06
1.73463e-05
1.8704e-05
2.79361e-06
9.66904e-07
6.18396e-07
5.13435e-07
4.73973e-07
4.57909e-07
4.51297e-07
4.48643e-07
4.47627e-07
4.47258e-07
4.4713e-07
4.47085e-07
4.47067e-07
4.4706e-07
4.47059e-07
4.47066e-07
4.47085e-07
4.47132e-07
4.47262e-07
4.4763e-07
4.48638e-07
4.51273e-07
4.57854e-07
4.73875e-07
5.13292e-07
6.18234e-07
9.66857e-07
2.79478e-06
1.87134e-05
2.05982e-05
3.05801e-06
1.03099e-06
6.43026e-07
5.2488e-07
4.79911e-07
4.61147e-07
4.53091e-07
4.49658e-07
4.48222e-07
4.47627e-07
4.47374e-07
4.47258e-07
4.47202e-07
4.47177e-07
4.47176e-07
4.47199e-07
4.47257e-07
4.47377e-07
4.47638e-07
4.48239e-07
4.49675e-07
4.53094e-07
4.61117e-07
4.7983e-07
5.24732e-07
6.42814e-07
1.03087e-06
3.05938e-06
2.06103e-05
2.31926e-05
3.41969e-06
1.11676e-06
6.75321e-07
5.38973e-07
4.88262e-07
4.66166e-07
4.56218e-07
4.51704e-07
4.49639e-07
4.48665e-07
4.48179e-07
4.47917e-07
4.47774e-07
4.47707e-07
4.47703e-07
4.47766e-07
4.4791e-07
4.48179e-07
4.4868e-07
4.4967e-07
4.51749e-07
4.56262e-07
4.66186e-07
4.8823e-07
5.38881e-07
6.75083e-07
1.11655e-06
3.42118e-06
2.32076e-05
2.67506e-05
3.91502e-06
1.23203e-06
7.19371e-07
5.61948e-07
5.0147e-07
4.74606e-07
4.62113e-07
4.56106e-07
4.5309e-07
4.51481e-07
4.50557e-07
4.49997e-07
4.49665e-07
4.49504e-07
4.49497e-07
4.49646e-07
4.49975e-07
4.50543e-07
4.51489e-07
4.53129e-07
4.56177e-07
4.62206e-07
4.74693e-07
5.01508e-07
5.6189e-07
7.19121e-07
1.23168e-06
3.91635e-06
2.67682e-05
3.16317e-05
4.60583e-06
1.39227e-06
7.8148e-07
5.95432e-07
5.22268e-07
4.89636e-07
4.74027e-07
4.65969e-07
4.61482e-07
4.58776e-07
4.57025e-07
4.55866e-07
4.55142e-07
4.54784e-07
4.5477e-07
4.55104e-07
4.55816e-07
4.5698e-07
4.58757e-07
4.61507e-07
4.66049e-07
4.74162e-07
4.898e-07
5.22408e-07
5.95472e-07
7.81286e-07
1.39177e-06
4.60653e-06
3.1648e-05
3.86309e-05
5.63018e-06
1.63585e-06
8.76362e-07
6.47663e-07
5.58866e-07
5.1975e-07
5.00101e-07
4.88807e-07
4.8181e-07
4.77089e-07
4.73724e-07
4.71362e-07
4.69841e-07
4.69083e-07
4.6906e-07
4.69776e-07
4.71269e-07
4.73625e-07
4.77013e-07
4.81789e-07
4.88856e-07
5.0024e-07
5.19972e-07
5.591e-07
6.47858e-07
8.76306e-07
1.63528e-06
5.63012e-06
3.86475e-05
4.92295e-05
7.28793e-06
2.05406e-06
1.03814e-06
7.45318e-07
6.37368e-07
5.89075e-07
5.62026e-07
5.44004e-07
5.32201e-07
5.23313e-07
5.16535e-07
5.11647e-07
5.08468e-07
5.06882e-07
5.06848e-07
5.08369e-07
5.11497e-07
5.16356e-07
5.23142e-07
5.32101e-07
5.43958e-07
5.62081e-07
5.89283e-07
6.37704e-07
7.45675e-07
1.03821e-06
2.05313e-06
7.28583e-06
4.92439e-05
6.67065e-05
1.03353e-05
2.85053e-06
1.38686e-06
9.8948e-07
8.49336e-07
7.78019e-07
7.3102e-07
6.96373e-07
6.70095e-07
6.49888e-07
6.34644e-07
6.23692e-07
6.16591e-07
6.1308e-07
6.13034e-07
6.16458e-07
6.23478e-07
6.34367e-07
6.49569e-07
6.69777e-07
6.96101e-07
7.30851e-07
7.78023e-07
8.49551e-07
9.89815e-07
1.3868e-06
2.84842e-06
1.03278e-05
6.67118e-05
0.000100302
1.54206e-05
5.15606e-06
2.56111e-06
1.9099e-06
1.62459e-06
1.44572e-06
1.31666e-06
1.21865e-06
1.14361e-06
1.0865e-06
1.04386e-06
1.01347e-06
9.9391e-07
9.84321e-07
9.84279e-07
9.93782e-07
1.01326e-06
1.04357e-06
1.0861e-06
1.1431e-06
1.21809e-06
1.3161e-06
1.44519e-06
1.62415e-06
1.90944e-06
2.5598e-06
5.15007e-06
1.5404e-05
0.00010028
0.000151101
3.2616e-05
1.39482e-05
9.32408e-06
7.19266e-06
5.96079e-06
5.12295e-06
4.51072e-06
4.05212e-06
3.70882e-06
3.45219e-06
3.26278e-06
3.12943e-06
3.04459e-06
3.00341e-06
3.00355e-06
3.04501e-06
3.13011e-06
3.26366e-06
3.4531e-06
3.70954e-06
4.05277e-06
4.51113e-06
5.12287e-06
5.95978e-06
7.19034e-06
9.31835e-06
1.3936e-05
3.25895e-05
0.000151045
0.00152923
0.000225011
0.000110938
7.00859e-05
5.19893e-05
4.16986e-05
3.49946e-05
3.03566e-05
2.70241e-05
2.45841e-05
2.27735e-05
2.1444e-05
2.05152e-05
1.9927e-05
1.96424e-05
1.96438e-05
1.99312e-05
2.05222e-05
2.14538e-05
2.27855e-05
2.45958e-05
2.70371e-05
3.03709e-05
3.50095e-05
4.1713e-05
5.20009e-05
7.00893e-05
0.000110919
0.000224933
0.00152869
0.00111241
0.000167414
8.85203e-05
5.8685e-05
4.56038e-05
3.79371e-05
3.28163e-05
2.91549e-05
2.64519e-05
2.44481e-05
2.30004e-05
2.19649e-05
2.12401e-05
2.07786e-05
2.05543e-05
2.05553e-05
2.07817e-05
2.12453e-05
2.19722e-05
2.30095e-05
2.44564e-05
2.64617e-05
2.91666e-05
3.28321e-05
3.79513e-05
4.56098e-05
5.867e-05
8.84556e-05
0.000167205
0.00111108
0.000105973
3.03633e-05
2.01175e-05
1.41876e-05
1.14038e-05
9.59773e-06
8.27128e-06
7.28392e-06
6.52324e-06
5.94227e-06
5.5118e-06
5.20287e-06
4.98991e-06
4.85602e-06
4.79134e-06
4.79135e-06
4.85605e-06
4.98992e-06
5.20276e-06
5.5112e-06
5.94079e-06
6.52094e-06
7.28073e-06
8.26652e-06
9.58919e-06
1.13913e-05
1.41685e-05
2.00885e-05
3.02935e-05
0.00010586
8.33192e-05
2.19028e-05
1.12516e-05
5.81578e-06
3.74243e-06
2.88111e-06
2.40591e-06
2.08421e-06
1.8511e-06
1.6797e-06
1.55586e-06
1.46762e-06
1.40737e-06
1.37022e-06
1.35236e-06
1.3522e-06
1.36975e-06
1.40669e-06
1.46668e-06
1.55459e-06
1.67805e-06
1.84871e-06
2.0817e-06
2.40372e-06
2.88e-06
3.74319e-06
5.81549e-06
1.12398e-05
2.18616e-05
8.32678e-05
5.74118e-05
1.60144e-05
6.48232e-06
2.84526e-06
1.59657e-06
1.16788e-06
9.85053e-07
8.80278e-07
8.07984e-07
7.54894e-07
7.1608e-07
6.88179e-07
6.68922e-07
6.56856e-07
6.51028e-07
6.50954e-07
6.56636e-07
6.68566e-07
6.87695e-07
7.15485e-07
7.54247e-07
8.07388e-07
8.79961e-07
9.85338e-07
1.16927e-06
1.60007e-06
2.84846e-06
6.47794e-06
1.59926e-05
5.7416e-05
4.44885e-05
1.14571e-05
4.08511e-06
1.70776e-06
9.73182e-07
7.15076e-07
6.10177e-07
5.5806e-07
5.25078e-07
5.00529e-07
4.82864e-07
4.7035e-07
4.61712e-07
4.56287e-07
4.53738e-07
4.53689e-07
4.56148e-07
4.61495e-07
4.70078e-07
4.82582e-07
5.00328e-07
5.25022e-07
5.58278e-07
6.10779e-07
7.1623e-07
9.74813e-07
1.70923e-06
4.08216e-06
1.14482e-05
4.45116e-05
3.64453e-05
8.69873e-06
2.81649e-06
1.21148e-06
7.32164e-07
5.56445e-07
4.78475e-07
4.42016e-07
4.21862e-07
4.08758e-07
3.9965e-07
3.93274e-07
3.88907e-07
3.8617e-07
3.84856e-07
3.84828e-07
3.8609e-07
3.8879e-07
3.93142e-07
3.99545e-07
4.08738e-07
4.2199e-07
4.42347e-07
4.78996e-07
5.57096e-07
7.32726e-07
1.21128e-06
2.81324e-06
8.69398e-06
3.64649e-05
3.08984e-05
6.97159e-06
2.12333e-06
9.55899e-07
6.13737e-07
4.80924e-07
4.22728e-07
3.94368e-07
3.79279e-07
3.70402e-07
3.64739e-07
3.60982e-07
3.58496e-07
3.56967e-07
3.56234e-07
3.56219e-07
3.56925e-07
3.58439e-07
3.60929e-07
3.64718e-07
3.70448e-07
3.7942e-07
3.9461e-07
4.23031e-07
4.81159e-07
6.13696e-07
9.55083e-07
2.12024e-06
6.96948e-06
3.09156e-05
2.69855e-05
5.84556e-06
1.72508e-06
8.11094e-07
5.46014e-07
4.41064e-07
3.94492e-07
3.71506e-07
3.59443e-07
3.52739e-07
3.48789e-07
3.46354e-07
3.44832e-07
3.4393e-07
3.43504e-07
3.43497e-07
3.43909e-07
3.44807e-07
3.46337e-07
3.48796e-07
3.52785e-07
3.59533e-07
3.71623e-07
3.94579e-07
4.41013e-07
5.45677e-07
8.10172e-07
1.72314e-06
5.84512e-06
2.70045e-05
2.42324e-05
5.08825e-06
1.48238e-06
7.23639e-07
5.03627e-07
4.17166e-07
3.78438e-07
3.59341e-07
3.49461e-07
3.44177e-07
3.41252e-07
3.39576e-07
3.38596e-07
3.38042e-07
3.37789e-07
3.37786e-07
3.38033e-07
3.38585e-07
3.39571e-07
3.41261e-07
3.44202e-07
3.49495e-07
3.59359e-07
3.78389e-07
4.1697e-07
5.03209e-07
7.22846e-07
1.48095e-06
5.08853e-06
2.42477e-05
2.2187e-05
4.55999e-06
1.3253e-06
6.67124e-07
4.74195e-07
4.01441e-07
3.68516e-07
3.52358e-07
3.44138e-07
3.39882e-07
3.37643e-07
3.36439e-07
3.35781e-07
3.3543e-07
3.35274e-07
3.35273e-07
3.35425e-07
3.35776e-07
3.36437e-07
3.37645e-07
3.39886e-07
3.44132e-07
3.52318e-07
3.68402e-07
4.01193e-07
4.73743e-07
6.66477e-07
1.32394e-06
4.56022e-06
2.21986e-05
2.06615e-05
4.18426e-06
1.21988e-06
6.2934e-07
4.56297e-07
3.91259e-07
3.62198e-07
3.48155e-07
3.41165e-07
3.37658e-07
3.35892e-07
3.34994e-07
3.34533e-07
3.343e-07
3.342e-07
3.34199e-07
3.34297e-07
3.3453e-07
3.34992e-07
3.35888e-07
3.37648e-07
3.41139e-07
3.48093e-07
3.62072e-07
3.91029e-07
4.55926e-07
6.28866e-07
1.21892e-06
4.18436e-06
2.06701e-05
1.95423e-05
3.91786e-06
1.14761e-06
6.03354e-07
4.44364e-07
3.84574e-07
3.58125e-07
3.4556e-07
3.39446e-07
3.36468e-07
3.35025e-07
3.34325e-07
3.33983e-07
3.33819e-07
3.33751e-07
3.3375e-07
3.33817e-07
3.33981e-07
3.34322e-07
3.35019e-07
3.36455e-07
3.39417e-07
3.45501e-07
3.58018e-07
3.84394e-07
4.44092e-07
6.0302e-07
1.14694e-06
3.91784e-06
1.95485e-05
1.87555e-05
3.73493e-06
1.09882e-06
5.85647e-07
4.36325e-07
3.80168e-07
3.5551e-07
3.43955e-07
3.3844e-07
3.35818e-07
3.34585e-07
3.34009e-07
3.33738e-07
3.33613e-07
3.33562e-07
3.33562e-07
3.33612e-07
3.33738e-07
3.34007e-07
3.34581e-07
3.35807e-07
3.38417e-07
3.43912e-07
3.55435e-07
3.80045e-07
4.36138e-07
5.85394e-07
1.09834e-06
3.73475e-06
1.87596e-05
1.82538e-05
3.62014e-06
1.06852e-06
5.74439e-07
4.3127e-07
3.77444e-07
3.53931e-07
3.43015e-07
3.37874e-07
3.35472e-07
3.34365e-07
3.3386e-07
3.33629e-07
3.33524e-07
3.33483e-07
3.33483e-07
3.33524e-07
3.33629e-07
3.3386e-07
3.34364e-07
3.35468e-07
3.37864e-07
3.42995e-07
3.53892e-07
3.77378e-07
4.31163e-07
5.74279e-07
1.06817e-06
3.61979e-06
1.82561e-05
1.80091e-05
3.5647e-06
1.05395e-06
5.69034e-07
4.28826e-07
3.7614e-07
3.53186e-07
3.42582e-07
3.37621e-07
3.35322e-07
3.34274e-07
3.33802e-07
3.33588e-07
3.33492e-07
3.33454e-07
3.33455e-07
3.33493e-07
3.33589e-07
3.33804e-07
3.34278e-07
3.35326e-07
3.37625e-07
3.42585e-07
3.53185e-07
3.76128e-07
4.28794e-07
5.68959e-07
1.05372e-06
3.56417e-06
1.80098e-05
1.80087e-05
3.56463e-06
1.05395e-06
5.69047e-07
4.2884e-07
3.76152e-07
3.53197e-07
3.42591e-07
3.37628e-07
3.35328e-07
3.34279e-07
3.33806e-07
3.33592e-07
3.33496e-07
3.33459e-07
3.33459e-07
3.33498e-07
3.33595e-07
3.33811e-07
3.34287e-07
3.3534e-07
3.37646e-07
3.42616e-07
3.53232e-07
3.76194e-07
4.2888e-07
5.69053e-07
1.05382e-06
3.56394e-06
1.80078e-05
1.82526e-05
3.61991e-06
1.06853e-06
5.74483e-07
4.31315e-07
3.77484e-07
3.53964e-07
3.43042e-07
3.37895e-07
3.35489e-07
3.3438e-07
3.33874e-07
3.33643e-07
3.33538e-07
3.33497e-07
3.33497e-07
3.33539e-07
3.33646e-07
3.33879e-07
3.3439e-07
3.35506e-07
3.37924e-07
3.43088e-07
3.54032e-07
3.77578e-07
4.31428e-07
5.74574e-07
1.06852e-06
3.61907e-06
1.825e-05
1.87534e-05
3.73453e-06
1.09886e-06
5.85731e-07
4.36408e-07
3.80239e-07
3.55567e-07
3.43999e-07
3.38474e-07
3.35847e-07
3.34611e-07
3.34033e-07
3.33763e-07
3.33638e-07
3.33588e-07
3.33588e-07
3.33639e-07
3.33765e-07
3.34038e-07
3.3462e-07
3.35865e-07
3.3851e-07
3.44061e-07
3.55665e-07
3.80382e-07
4.36595e-07
5.85915e-07
1.09899e-06
3.73356e-06
1.87488e-05
1.9539e-05
3.91729e-06
1.14772e-06
6.03479e-07
4.44495e-07
3.84683e-07
3.58208e-07
3.45621e-07
3.39493e-07
3.36507e-07
3.35061e-07
3.34361e-07
3.34021e-07
3.33859e-07
3.33792e-07
3.33793e-07
3.33859e-07
3.34022e-07
3.34363e-07
3.35066e-07
3.36522e-07
3.39526e-07
3.45687e-07
3.58325e-07
3.84867e-07
4.44752e-07
6.03738e-07
1.14802e-06
3.91617e-06
1.95323e-05
2.06564e-05
4.18352e-06
1.22011e-06
6.29554e-07
4.56499e-07
3.9141e-07
3.62303e-07
3.48227e-07
3.41219e-07
3.37704e-07
3.35938e-07
3.35045e-07
3.34589e-07
3.34361e-07
3.34265e-07
3.34265e-07
3.34361e-07
3.34588e-07
3.35042e-07
3.35935e-07
3.37707e-07
3.41238e-07
3.48281e-07
3.62418e-07
3.91616e-07
4.56818e-07
6.29917e-07
1.22063e-06
4.18226e-06
2.06473e-05
2.21794e-05
4.55913e-06
1.32581e-06
6.67477e-07
4.74471e-07
4.0162e-07
3.68626e-07
3.52427e-07
3.4419e-07
3.39933e-07
3.37701e-07
3.36509e-07
3.35863e-07
3.35522e-07
3.35375e-07
3.35376e-07
3.35524e-07
3.35863e-07
3.36503e-07
3.37688e-07
3.39916e-07
3.44179e-07
3.52444e-07
3.68706e-07
4.01808e-07
4.74814e-07
6.6794e-07
1.32655e-06
4.55773e-06
2.21676e-05
2.42214e-05
5.08738e-06
1.48322e-06
7.24155e-07
5.03901e-07
4.1733e-07
3.78517e-07
3.59382e-07
3.49499e-07
3.44231e-07
3.41329e-07
3.39675e-07
3.38717e-07
3.38182e-07
3.37944e-07
3.37947e-07
3.38191e-07
3.38724e-07
3.39672e-07
3.41308e-07
3.4419e-07
3.49444e-07
3.59334e-07
3.78516e-07
4.17435e-07
5.04158e-07
7.24678e-07
1.48402e-06
5.08599e-06
2.42068e-05
2.69701e-05
5.84509e-06
1.72639e-06
8.11772e-07
5.46286e-07
4.41142e-07
3.94479e-07
3.71486e-07
3.59458e-07
3.52801e-07
3.48896e-07
3.465e-07
3.45012e-07
3.4414e-07
3.4374e-07
3.4375e-07
3.44164e-07
3.4504e-07
3.46515e-07
3.48882e-07
3.52744e-07
3.59354e-07
3.7135e-07
3.94352e-07
4.41105e-07
5.46459e-07
8.12333e-07
1.72754e-06
5.84442e-06
2.69533e-05
3.08843e-05
6.9719e-06
2.12535e-06
9.56505e-07
6.13767e-07
4.80743e-07
4.22542e-07
3.94266e-07
3.79283e-07
3.70497e-07
3.64904e-07
3.61201e-07
3.58762e-07
3.57278e-07
3.5659e-07
3.56611e-07
3.57334e-07
3.58834e-07
3.61265e-07
3.6493e-07
3.70453e-07
3.79149e-07
3.94039e-07
4.2225e-07
4.80474e-07
6.13707e-07
9.56967e-07
2.12713e-06
6.97307e-06
3.08726e-05
3.64252e-05
8.69824e-06
2.81787e-06
1.21131e-06
7.31531e-07
5.55833e-07
4.78068e-07
4.41862e-07
4.21906e-07
4.08934e-07
3.99919e-07
3.93606e-07
3.89294e-07
3.8662e-07
3.85381e-07
3.85421e-07
3.86729e-07
3.89447e-07
3.93768e-07
4.00044e-07
4.08968e-07
4.2181e-07
4.41597e-07
4.77628e-07
5.55284e-07
7.31062e-07
1.2114e-06
2.82002e-06
8.70236e-06
3.64149e-05
4.44547e-05
1.14569e-05
4.08442e-06
1.70511e-06
9.71176e-07
7.13896e-07
6.09679e-07
5.57981e-07
5.25263e-07
5.00848e-07
4.83299e-07
4.70837e-07
4.62252e-07
4.56906e-07
4.54481e-07
4.54548e-07
4.57089e-07
4.62526e-07
4.71163e-07
4.83618e-07
5.01057e-07
5.25348e-07
5.57852e-07
6.09277e-07
7.13141e-07
9.70171e-07
1.70458e-06
4.08734e-06
1.14647e-05
4.44458e-05
5.73782e-05
1.60191e-05
6.47744e-06
2.83839e-06
1.59194e-06
1.16613e-06
9.84681e-07
8.80609e-07
8.08611e-07
7.55601e-07
7.16762e-07
6.88828e-07
6.69589e-07
6.57591e-07
6.51885e-07
6.51979e-07
6.57865e-07
6.70018e-07
6.89362e-07
7.17373e-07
7.56229e-07
8.09144e-07
8.8095e-07
9.84696e-07
1.16561e-06
1.59074e-06
2.83785e-06
6.48183e-06
1.60345e-05
5.7384e-05
8.33005e-05
2.19182e-05
1.12483e-05
5.80835e-06
3.73758e-06
2.87982e-06
2.40673e-06
2.08598e-06
1.85302e-06
1.68135e-06
1.557e-06
1.46855e-06
1.40831e-06
1.37124e-06
1.3536e-06
1.35379e-06
1.37182e-06
1.40924e-06
1.46953e-06
1.55822e-06
1.68308e-06
1.85491e-06
2.08798e-06
2.40901e-06
2.88237e-06
3.74012e-06
5.81169e-06
1.12553e-05
2.19374e-05
8.33401e-05
0.000106024
3.04015e-05
2.01276e-05
1.41896e-05
1.14018e-05
9.59579e-06
8.27013e-06
7.28374e-06
6.52346e-06
5.94236e-06
5.51068e-06
5.20091e-06
4.98756e-06
4.85345e-06
4.78862e-06
4.78857e-06
4.85331e-06
4.98736e-06
5.20071e-06
5.51082e-06
5.94326e-06
6.52479e-06
7.28591e-06
8.27429e-06
9.60446e-06
1.14138e-05
1.42059e-05
2.01474e-05
3.04423e-05
0.000106105
0.001113
0.000167475
8.8517e-05
5.8658e-05
4.55694e-05
3.79037e-05
3.27875e-05
2.91364e-05
2.64364e-05
2.44332e-05
2.29779e-05
2.19415e-05
2.12162e-05
2.07534e-05
2.05273e-05
2.0526e-05
2.07493e-05
2.12094e-05
2.19322e-05
2.29669e-05
2.44254e-05
2.64284e-05
2.91278e-05
3.27762e-05
3.78954e-05
4.55683e-05
5.86698e-05
8.85537e-05
0.000167581
0.00111372
0.000959257
0.000141831
7.62411e-05
5.12227e-05
4.01721e-05
3.36044e-05
2.91557e-05
2.60261e-05
2.37589e-05
2.20796e-05
2.08128e-05
1.98758e-05
1.92189e-05
1.88017e-05
1.85991e-05
1.85995e-05
1.88026e-05
1.92203e-05
1.98774e-05
2.08144e-05
2.20821e-05
2.37605e-05
2.60261e-05
2.91511e-05
3.35988e-05
4.01686e-05
5.12266e-05
7.62606e-05
0.000141915
0.000959878
9.39248e-05
3.44688e-05
2.2355e-05
1.68375e-05
1.41932e-05
1.25949e-05
1.13742e-05
1.03346e-05
9.43872e-06
8.68883e-06
8.0845e-06
7.62097e-06
7.28827e-06
7.07457e-06
6.97045e-06
6.97083e-06
7.07569e-06
7.29003e-06
7.62321e-06
8.08712e-06
8.69158e-06
9.44104e-06
1.03361e-05
1.13751e-05
1.25961e-05
1.41947e-05
1.68395e-05
2.23587e-05
3.45087e-05
9.39856e-05
7.3528e-05
2.26042e-05
1.35628e-05
8.5188e-06
6.06537e-06
4.79233e-06
4.0267e-06
3.48904e-06
3.07542e-06
2.75374e-06
2.50659e-06
2.32422e-06
2.19694e-06
2.11641e-06
2.07752e-06
2.07751e-06
2.11639e-06
2.19683e-06
2.32407e-06
2.50649e-06
2.75374e-06
3.07578e-06
3.48904e-06
4.02553e-06
4.78907e-06
6.05982e-06
8.51226e-06
1.35606e-05
2.26167e-05
7.35485e-05
5.05556e-05
1.80755e-05
9.34985e-06
4.89571e-06
2.77892e-06
1.86558e-06
1.46288e-06
1.24602e-06
1.1037e-06
1.00003e-06
9.21903e-07
8.64587e-07
8.24765e-07
7.9973e-07
7.87615e-07
7.87562e-07
7.99576e-07
8.24531e-07
8.64319e-07
9.21643e-07
9.99802e-07
1.1035e-06
1.24579e-06
1.46219e-06
1.86358e-06
2.77405e-06
4.88967e-06
9.34874e-06
1.80837e-05
5.05574e-05
3.89074e-05
1.38832e-05
6.61165e-06
3.00937e-06
1.4884e-06
9.28796e-07
7.1305e-07
6.15251e-07
5.61425e-07
5.24995e-07
4.98361e-07
4.78905e-07
4.65322e-07
4.56687e-07
4.52232e-07
4.52205e-07
4.56599e-07
4.65194e-07
4.78766e-07
4.98237e-07
5.249e-07
5.61333e-07
6.15111e-07
7.12791e-07
9.28105e-07
1.48663e-06
3.00617e-06
6.61188e-06
1.38875e-05
3.89046e-05
3.19039e-05
1.13207e-05
4.72455e-06
1.96166e-06
9.65238e-07
6.14964e-07
4.80677e-07
4.18777e-07
3.87433e-07
3.68837e-07
3.56303e-07
3.47481e-07
3.41633e-07
3.38009e-07
3.36211e-07
3.36193e-07
3.37957e-07
3.41564e-07
3.47421e-07
3.56249e-07
3.68783e-07
3.87349e-07
4.18632e-07
4.80534e-07
6.14672e-07
9.64867e-07
1.96151e-06
4.72687e-06
1.13254e-05
3.1908e-05
2.72886e-05
9.47289e-06
3.49568e-06
1.38714e-06
7.17719e-07
4.84673e-07
3.8596e-07
3.4171e-07
3.2082e-07
3.09624e-07
3.02832e-07
2.98368e-07
2.95451e-07
2.93669e-07
2.92806e-07
2.92796e-07
2.93642e-07
2.95415e-07
2.98333e-07
3.028e-07
3.0959e-07
3.2077e-07
3.41629e-07
3.85836e-07
4.84597e-07
7.17705e-07
1.38763e-06
3.49871e-06
9.47778e-06
2.72952e-05
2.4039e-05
8.07652e-06
2.71739e-06
1.07198e-06
5.86782e-07
4.14806e-07
3.41518e-07
3.08619e-07
2.92692e-07
2.8448e-07
2.79923e-07
2.7721e-07
2.75551e-07
2.74578e-07
2.74121e-07
2.74116e-07
2.74564e-07
2.75531e-07
2.77189e-07
2.79902e-07
2.84457e-07
2.92658e-07
3.08569e-07
3.41459e-07
4.14791e-07
5.86827e-07
1.07222e-06
2.71883e-06
8.082e-06
2.40452e-05
2.16307e-05
7.00005e-06
2.22008e-06
8.86551e-07
5.11658e-07
3.74682e-07
3.18236e-07
2.92226e-07
2.79398e-07
2.72838e-07
2.69372e-07
2.67471e-07
2.66405e-07
2.65821e-07
2.65559e-07
2.65556e-07
2.65813e-07
2.66393e-07
2.67457e-07
2.69355e-07
2.72816e-07
2.79365e-07
2.9218e-07
3.18186e-07
3.7466e-07
5.11622e-07
8.8653e-07
2.22099e-06
7.00597e-06
2.16384e-05
1.98603e-05
6.18607e-06
1.89125e-06
7.70842e-07
4.62653e-07
3.50218e-07
3.04564e-07
2.83218e-07
2.72582e-07
2.67149e-07
2.64346e-07
2.62887e-07
2.62125e-07
2.61738e-07
2.61573e-07
2.61571e-07
2.61733e-07
2.62117e-07
2.62875e-07
2.64329e-07
2.67124e-07
2.72545e-07
2.83164e-07
3.04494e-07
3.50141e-07
4.62622e-07
7.707e-07
1.89221e-06
6.19194e-06
1.98685e-05
1.85579e-05
5.5854e-06
1.66883e-06
6.96282e-07
4.29971e-07
3.34894e-07
2.96061e-07
2.77902e-07
2.68855e-07
2.64251e-07
2.61908e-07
2.60725e-07
2.60135e-07
2.59851e-07
2.59736e-07
2.59735e-07
2.59847e-07
2.60127e-07
2.60713e-07
2.6189e-07
2.64223e-07
2.68812e-07
2.77838e-07
2.95974e-07
3.34789e-07
4.29893e-07
6.96106e-07
1.66957e-06
5.5907e-06
1.85661e-05
1.76133e-05
5.15534e-06
1.51947e-06
6.47433e-07
4.08466e-07
3.24877e-07
2.90606e-07
2.74628e-07
2.66714e-07
2.62718e-07
2.60705e-07
2.59706e-07
2.59221e-07
2.58995e-07
2.58906e-07
2.58904e-07
2.58991e-07
2.59214e-07
2.59694e-07
2.60686e-07
2.62688e-07
2.66669e-07
2.74561e-07
2.90513e-07
3.24763e-07
4.08368e-07
6.47271e-07
1.51996e-06
5.15972e-06
1.76209e-05
1.69554e-05
4.86218e-06
1.42333e-06
6.16135e-07
3.94581e-07
3.18387e-07
2.87113e-07
2.72593e-07
2.65455e-07
2.61882e-07
2.60101e-07
2.59226e-07
2.58806e-07
2.58612e-07
2.58536e-07
2.58535e-07
2.58609e-07
2.58799e-07
2.59215e-07
2.60083e-07
2.61854e-07
2.65411e-07
2.72528e-07
2.87024e-07
3.18277e-07
3.94487e-07
6.16034e-07
1.42368e-06
4.86561e-06
1.69623e-05
1.65399e-05
4.681e-06
1.36536e-06
5.97615e-07
3.86276e-07
3.14474e-07
2.85016e-07
2.71393e-07
2.6474e-07
2.61435e-07
2.59799e-07
2.59001e-07
2.5862e-07
2.58444e-07
2.58376e-07
2.58375e-07
2.58442e-07
2.58614e-07
2.58992e-07
2.59784e-07
2.6141e-07
2.64701e-07
2.71336e-07
2.84937e-07
3.14375e-07
3.86185e-07
5.97515e-07
1.36555e-06
4.68344e-06
1.65459e-05
1.63402e-05
4.59717e-06
1.33856e-06
5.89009e-07
3.82397e-07
3.12632e-07
2.84027e-07
2.70831e-07
2.6441e-07
2.61235e-07
2.59671e-07
2.5891e-07
2.58547e-07
2.58379e-07
2.58314e-07
2.58314e-07
2.58378e-07
2.58543e-07
2.58903e-07
2.59658e-07
2.61215e-07
2.64378e-07
2.70783e-07
2.8396e-07
3.12544e-07
3.82307e-07
5.88901e-07
1.33854e-06
4.59842e-06
1.63454e-05
1.63405e-05
4.59756e-06
1.33867e-06
5.89042e-07
3.82411e-07
3.12633e-07
2.84023e-07
2.70826e-07
2.64405e-07
2.6123e-07
2.59667e-07
2.58906e-07
2.58543e-07
2.58377e-07
2.58312e-07
2.58312e-07
2.58376e-07
2.58542e-07
2.58902e-07
2.59658e-07
2.61215e-07
2.6438e-07
2.70787e-07
2.83968e-07
3.12558e-07
3.82327e-07
5.88941e-07
1.33854e-06
4.59815e-06
1.63453e-05
1.6541e-05
4.68271e-06
1.36576e-06
5.97725e-07
3.8632e-07
3.14479e-07
2.85005e-07
2.71378e-07
2.64725e-07
2.61422e-07
2.59788e-07
2.58991e-07
2.58611e-07
2.58436e-07
2.58369e-07
2.58369e-07
2.58437e-07
2.58611e-07
2.5899e-07
2.59783e-07
2.61411e-07
2.64706e-07
2.71348e-07
2.8496e-07
3.14416e-07
3.86246e-07
5.97641e-07
1.36555e-06
4.68258e-06
1.65458e-05
1.69575e-05
4.86499e-06
1.424e-06
6.16327e-07
3.94658e-07
3.18395e-07
2.87096e-07
2.7257e-07
2.65433e-07
2.61863e-07
2.60084e-07
2.5921e-07
2.58792e-07
2.58599e-07
2.58525e-07
2.58526e-07
2.58601e-07
2.58794e-07
2.59212e-07
2.60082e-07
2.61856e-07
2.65419e-07
2.72546e-07
2.8706e-07
3.18345e-07
3.94597e-07
6.16269e-07
1.42372e-06
4.86413e-06
1.69621e-05
1.76164e-05
5.15919e-06
1.52042e-06
6.47745e-07
4.08577e-07
3.24889e-07
2.90585e-07
2.74601e-07
2.6669e-07
2.62696e-07
2.60686e-07
2.59688e-07
2.59204e-07
2.58979e-07
2.58892e-07
2.58893e-07
2.58983e-07
2.59209e-07
2.59692e-07
2.60686e-07
2.62691e-07
2.66678e-07
2.74582e-07
2.90558e-07
3.24854e-07
4.08542e-07
6.47771e-07
1.52009e-06
5.15753e-06
1.76209e-05
1.85624e-05
5.59013e-06
1.67046e-06
6.96716e-07
4.30107e-07
3.34905e-07
2.96039e-07
2.77877e-07
2.68834e-07
2.64233e-07
2.6189e-07
2.60707e-07
2.60117e-07
2.59835e-07
2.59722e-07
2.59725e-07
2.59842e-07
2.60126e-07
2.60714e-07
2.61893e-07
2.64228e-07
2.6882e-07
2.77856e-07
2.96017e-07
3.34889e-07
4.30111e-07
6.96831e-07
1.66987e-06
5.5878e-06
1.85666e-05
1.98664e-05
6.19112e-06
1.89299e-06
7.71353e-07
4.62791e-07
3.50222e-07
3.04542e-07
2.83199e-07
2.72569e-07
2.67138e-07
2.64334e-07
2.62873e-07
2.62111e-07
2.61726e-07
2.61565e-07
2.61569e-07
2.61737e-07
2.62126e-07
2.62887e-07
2.6434e-07
2.67132e-07
2.72549e-07
2.8317e-07
3.04519e-07
3.50229e-07
4.62862e-07
7.71643e-07
1.89271e-06
6.18858e-06
1.98701e-05
2.16392e-05
7.00497e-06
2.22176e-06
8.87078e-07
5.11784e-07
3.74673e-07
3.18206e-07
2.92207e-07
2.7939e-07
2.72835e-07
2.69368e-07
2.67467e-07
2.66401e-07
2.65822e-07
2.65567e-07