/*--------------------------------*- C++ -*----------------------------------*\
| =========                 |                                                 |
| \\      /  F ield         | OpenFOAM: The Open Source CFD Toolbox           |
|  \\    /   O peration     | Version:  2312                                  |
|   \\  /    A nd           | Website:  www.openfoam.com                      |
|    \\/     M anipulation  |                                                 |
\*---------------------------------------------------------------------------*/
FoamFile
{
    version     2.0;
    format      ascii;
    arch        "LSB;label=32;scalar=64";
    class       volScalarField;
    location    "250";
    object      k;
}
// * * * * * * * * * * * * * * * * * * * * * * * * * * * * * * * * * * * * * //

dimensions      [0 2 -2 0 0 0 0];

internalField   nonuniform List<scalar> 
27000
(
0.000259206
0.000129528
0.000107449
9.56107e-05
9.00675e-05
8.66187e-05
8.3998e-05
8.17108e-05
7.98085e-05
7.8261e-05
7.69738e-05
7.59402e-05
7.51742e-05
7.46692e-05
7.44179e-05
7.44164e-05
7.46649e-05
7.51672e-05
7.59308e-05
7.69631e-05
7.82519e-05
7.97992e-05
8.17015e-05
8.39896e-05
8.66124e-05
9.00654e-05
9.56159e-05
0.000107465
0.000129559
0.000259258
9.82843e-05
2.15432e-05
2.82767e-05
3.06607e-05
3.24223e-05
3.35809e-05
3.43144e-05
3.47464e-05
3.49767e-05
3.51101e-05
3.51947e-05
3.52499e-05
3.52858e-05
3.53076e-05
3.53181e-05
3.53181e-05
3.53078e-05
3.52861e-05
3.52504e-05
3.51955e-05
3.51111e-05
3.49776e-05
3.47474e-05
3.43154e-05
3.35818e-05
3.24238e-05
3.0664e-05
2.82836e-05
2.15503e-05
9.82964e-05
0.000101414
3.49853e-05
2.88331e-05
2.72606e-05
2.79582e-05
2.88753e-05
2.96553e-05
3.03057e-05
3.08094e-05
3.11938e-05
3.14875e-05
3.17082e-05
3.18667e-05
3.19694e-05
3.20203e-05
3.20212e-05
3.19719e-05
3.18707e-05
3.17135e-05
3.14934e-05
3.11996e-05
3.0814e-05
3.03086e-05
2.96558e-05
2.88731e-05
2.79546e-05
2.72578e-05
2.8837e-05
3.49992e-05
0.00010142
9.49089e-05
3.52763e-05
2.8708e-05
2.84586e-05
2.93095e-05
3.01367e-05
3.08023e-05
3.13298e-05
3.17427e-05
3.20596e-05
3.22998e-05
3.24788e-05
3.26066e-05
3.26892e-05
3.27301e-05
3.2731e-05
3.26917e-05
3.26106e-05
3.24838e-05
3.23049e-05
3.20637e-05
3.17448e-05
3.13292e-05
3.07984e-05
3.01299e-05
2.93015e-05
2.84529e-05
2.87064e-05
3.52816e-05
9.49046e-05
9.03203e-05
3.42258e-05
2.8994e-05
2.96269e-05
3.06089e-05
3.13696e-05
3.19354e-05
3.23594e-05
3.2679e-05
3.29179e-05
3.30952e-05
3.32246e-05
3.33154e-05
3.33735e-05
3.34022e-05
3.34029e-05
3.33756e-05
3.33185e-05
3.32281e-05
3.30982e-05
3.29196e-05
3.26785e-05
3.23561e-05
3.19293e-05
3.13617e-05
3.0601e-05
2.96214e-05
2.89924e-05
3.4227e-05
9.03085e-05
8.65982e-05
3.39269e-05
2.94343e-05
3.0441e-05
3.14759e-05
3.22015e-05
3.27033e-05
3.30553e-05
3.33048e-05
3.34821e-05
3.36078e-05
3.36958e-05
3.37555e-05
3.37928e-05
3.3811e-05
3.38115e-05
3.37943e-05
3.37575e-05
3.36978e-05
3.36092e-05
3.34821e-05
3.33028e-05
3.30512e-05
3.26977e-05
3.21953e-05
3.1471e-05
3.0439e-05
2.94351e-05
3.39267e-05
8.65826e-05
8.34241e-05
3.3966e-05
3.00991e-05
3.11119e-05
3.20911e-05
3.27607e-05
3.32053e-05
3.34991e-05
3.36928e-05
3.38203e-05
3.39039e-05
3.39584e-05
3.39931e-05
3.40138e-05
3.40237e-05
3.4024e-05
3.40147e-05
3.39943e-05
3.39594e-05
3.39043e-05
3.38195e-05
3.36907e-05
3.34959e-05
3.32017e-05
3.27578e-05
3.20904e-05
3.11145e-05
3.01045e-05
3.39664e-05
8.34066e-05
8.06487e-05
3.41053e-05
3.07619e-05
3.16863e-05
3.2562e-05
3.31529e-05
3.35345e-05
3.37736e-05
3.39193e-05
3.40057e-05
3.40559e-05
3.40843e-05
3.41001e-05
3.41085e-05
3.41123e-05
3.41125e-05
3.41091e-05
3.41008e-05
3.40848e-05
3.40558e-05
3.4005e-05
3.39179e-05
3.37719e-05
3.35333e-05
3.31533e-05
3.25651e-05
3.16927e-05
3.07699e-05
3.41055e-05
8.0626e-05
7.81438e-05
3.42453e-05
3.13083e-05
3.21466e-05
3.29221e-05
3.34335e-05
3.37517e-05
3.39392e-05
3.4043e-05
3.40961e-05
3.41205e-05
3.413e-05
3.41326e-05
3.41327e-05
3.41324e-05
3.41325e-05
3.4133e-05
3.4133e-05
3.41302e-05
3.41205e-05
3.40958e-05
3.40426e-05
3.39391e-05
3.37526e-05
3.34363e-05
3.29275e-05
3.21544e-05
3.13164e-05
3.42451e-05
7.81223e-05
7.60228e-05
3.43658e-05
3.17398e-05
3.25023e-05
3.31907e-05
3.3633e-05
3.38944e-05
3.40367e-05
3.41055e-05
3.41325e-05
3.41382e-05
3.41349e-05
3.41292e-05
3.41244e-05
3.41218e-05
3.41219e-05
3.41246e-05
3.41294e-05
3.4135e-05
3.41383e-05
3.41326e-05
3.41059e-05
3.40378e-05
3.38967e-05
3.36369e-05
3.31966e-05
3.25097e-05
3.17465e-05
3.43654e-05
7.60039e-05
7.42813e-05
3.44643e-05
3.20743e-05
3.27751e-05
3.33917e-05
3.37744e-05
3.39878e-05
3.40927e-05
3.41339e-05
3.41415e-05
3.41345e-05
3.41233e-05
3.41131e-05
3.41058e-05
3.41022e-05
3.41022e-05
3.41059e-05
3.41132e-05
3.41235e-05
3.41348e-05
3.4142e-05
3.41347e-05
3.40943e-05
3.39905e-05
3.37785e-05
3.33972e-05
3.27814e-05
3.20797e-05
3.44638e-05
7.42658e-05
7.29059e-05
3.45401e-05
3.23252e-05
3.29783e-05
3.35386e-05
3.38735e-05
3.40485e-05
3.41243e-05
3.41448e-05
3.4139e-05
3.4124e-05
3.41084e-05
3.40961e-05
3.4088e-05
3.40841e-05
3.40841e-05
3.4088e-05
3.40962e-05
3.41086e-05
3.41243e-05
3.41396e-05
3.41458e-05
3.41259e-05
3.4051e-05
3.38771e-05
3.35431e-05
3.29832e-05
3.23293e-05
3.45398e-05
7.28941e-05
7.18857e-05
3.45946e-05
3.25033e-05
3.31217e-05
3.36408e-05
3.39402e-05
3.40869e-05
3.41416e-05
3.41478e-05
3.41333e-05
3.41135e-05
3.40959e-05
3.40829e-05
3.40748e-05
3.4071e-05
3.4071e-05
3.40748e-05
3.4083e-05
3.4096e-05
3.41137e-05
3.41338e-05
3.41486e-05
3.41428e-05
3.40888e-05
3.39428e-05
3.3644e-05
3.31253e-05
3.25063e-05
3.45947e-05
7.18777e-05
7.12119e-05
3.46297e-05
3.26171e-05
3.3213e-05
3.3705e-05
3.39812e-05
3.41092e-05
3.41504e-05
3.41478e-05
3.41282e-05
3.41059e-05
3.40874e-05
3.40745e-05
3.40667e-05
3.40631e-05
3.40631e-05
3.40667e-05
3.40745e-05
3.40875e-05
3.4106e-05
3.41284e-05
3.41481e-05
3.41511e-05
3.41103e-05
3.39826e-05
3.37068e-05
3.32152e-05
3.2619e-05
3.46301e-05
7.12078e-05
7.08779e-05
3.46468e-05
3.26723e-05
3.32572e-05
3.37357e-05
3.40004e-05
3.41194e-05
3.4154e-05
3.41471e-05
3.41252e-05
3.41019e-05
3.40832e-05
3.40704e-05
3.40628e-05
3.40593e-05
3.40593e-05
3.40627e-05
3.40703e-05
3.40831e-05
3.41018e-05
3.4125e-05
3.4147e-05
3.41539e-05
3.41193e-05
3.40005e-05
3.37361e-05
3.32578e-05
3.26731e-05
3.46477e-05
7.08779e-05
7.08799e-05
3.4647e-05
3.2672e-05
3.32567e-05
3.37352e-05
3.39999e-05
3.41189e-05
3.41536e-05
3.41468e-05
3.41249e-05
3.41016e-05
3.40829e-05
3.407e-05
3.40624e-05
3.40589e-05
3.40589e-05
3.40623e-05
3.40699e-05
3.40827e-05
3.41013e-05
3.41244e-05
3.41461e-05
3.41527e-05
3.41179e-05
3.39987e-05
3.37341e-05
3.32558e-05
3.26716e-05
3.46483e-05
7.08845e-05
7.12181e-05
3.46302e-05
3.2616e-05
3.32116e-05
3.37035e-05
3.39798e-05
3.4108e-05
3.41494e-05
3.41468e-05
3.41273e-05
3.4105e-05
3.40865e-05
3.40735e-05
3.40656e-05
3.40619e-05
3.40619e-05
3.40655e-05
3.40733e-05
3.40862e-05
3.41046e-05
3.41266e-05
3.41457e-05
3.41478e-05
3.4106e-05
3.39773e-05
3.37007e-05
3.3209e-05
3.26143e-05
3.46318e-05
7.12274e-05
7.18964e-05
3.45954e-05
3.25012e-05
3.31191e-05
3.36382e-05
3.39379e-05
3.40849e-05
3.41399e-05
3.41463e-05
3.4132e-05
3.41121e-05
3.40943e-05
3.40812e-05
3.40729e-05
3.4069e-05
3.4069e-05
3.40729e-05
3.40811e-05
3.40941e-05
3.41117e-05
3.41312e-05
3.41451e-05
3.4138e-05
3.40821e-05
3.39343e-05
3.3634e-05
3.31148e-05
3.24981e-05
3.45972e-05
7.19107e-05
7.29212e-05
3.4541e-05
3.2322e-05
3.29744e-05
3.35349e-05
3.38704e-05
3.4046e-05
3.41223e-05
3.41431e-05
3.41373e-05
3.41221e-05
3.41063e-05
3.40936e-05
3.40853e-05
3.40812e-05
3.40812e-05
3.40852e-05
3.40936e-05
3.41062e-05
3.41219e-05
3.41368e-05
3.4142e-05
3.41203e-05
3.40429e-05
3.3866e-05
3.35295e-05
3.29684e-05
3.23172e-05
3.45427e-05
7.29407e-05
7.43014e-05
3.44651e-05
3.20696e-05
3.27699e-05
3.3387e-05
3.37708e-05
3.39851e-05
3.40907e-05
3.41321e-05
3.41397e-05
3.41323e-05
3.41206e-05
3.41098e-05
3.41021e-05
3.40982e-05
3.40982e-05
3.41021e-05
3.41099e-05
3.41208e-05
3.41325e-05
3.41397e-05
3.41317e-05
3.40894e-05
3.39824e-05
3.37663e-05
3.33808e-05
3.27625e-05
3.20631e-05
3.44664e-05
7.43261e-05
7.60479e-05
3.43662e-05
3.17333e-05
3.24957e-05
3.31854e-05
3.36294e-05
3.38921e-05
3.40352e-05
3.41041e-05
3.41307e-05
3.41357e-05
3.41315e-05
3.4125e-05
3.41195e-05
3.41165e-05
3.41164e-05
3.41194e-05
3.4125e-05
3.41318e-05
3.41363e-05
3.41315e-05
3.41048e-05
3.40352e-05
3.38907e-05
3.36257e-05
3.31792e-05
3.24874e-05
3.17251e-05
3.43669e-05
7.60773e-05
7.81738e-05
3.42449e-05
3.13001e-05
3.21393e-05
3.29172e-05
3.3431e-05
3.37507e-05
3.39388e-05
3.40423e-05
3.40945e-05
3.41177e-05
3.41259e-05
3.41273e-05
3.41264e-05
3.41254e-05
3.41253e-05
3.41261e-05
3.41271e-05
3.41261e-05
3.41186e-05
3.40961e-05
3.40444e-05
3.39407e-05
3.37514e-05
3.34294e-05
3.29124e-05
3.21311e-05
3.12904e-05
3.42443e-05
7.8207e-05
8.06824e-05
3.41038e-05
3.07529e-05
3.168e-05
3.25592e-05
3.31529e-05
3.35358e-05
3.37748e-05
3.39194e-05
3.40043e-05
3.40526e-05
3.40792e-05
3.40934e-05
3.41004e-05
3.41031e-05
3.41028e-05
3.40996e-05
3.40926e-05
3.40788e-05
3.40532e-05
3.40062e-05
3.39227e-05
3.37788e-05
3.35395e-05
3.31548e-05
3.25575e-05
3.16737e-05
3.0743e-05
3.41015e-05
8.07171e-05
8.34542e-05
3.39634e-05
3.00915e-05
3.1109e-05
3.20925e-05
3.27645e-05
3.32095e-05
3.3502e-05
3.36936e-05
3.38185e-05
3.38996e-05
3.39518e-05
3.39845e-05
3.40035e-05
3.4012e-05
3.40114e-05
3.4002e-05
3.39826e-05
3.39502e-05
3.38992e-05
3.38199e-05
3.36972e-05
3.35077e-05
3.32163e-05
3.27706e-05
3.20956e-05
3.11069e-05
3.00835e-05
3.39592e-05
8.34822e-05
8.66277e-05
3.39241e-05
2.94315e-05
3.04438e-05
3.14828e-05
3.22095e-05
3.271e-05
3.30591e-05
3.33053e-05
3.34793e-05
3.3602e-05
3.36875e-05
3.37449e-05
3.37802e-05
3.37966e-05
3.37957e-05
3.37777e-05
3.37415e-05
3.36839e-05
3.35995e-05
3.34789e-05
3.33079e-05
3.3065e-05
3.27187e-05
3.22195e-05
3.14913e-05
3.04475e-05
2.94284e-05
3.39188e-05
8.66518e-05
9.0346e-05
3.42212e-05
2.89954e-05
2.96358e-05
3.06208e-05
3.13805e-05
3.19427e-05
3.23624e-05
3.26778e-05
3.29131e-05
3.30874e-05
3.32143e-05
3.33029e-05
3.33588e-05
3.33854e-05
3.33841e-05
3.33552e-05
3.32976e-05
3.32082e-05
3.30817e-05
3.29092e-05
3.26773e-05
3.23661e-05
3.19509e-05
3.13921e-05
3.06333e-05
2.96448e-05
2.89954e-05
3.42121e-05
9.03629e-05
9.49251e-05
3.52662e-05
2.87124e-05
2.84703e-05
2.93233e-05
3.01468e-05
3.08073e-05
3.13299e-05
3.17387e-05
3.20525e-05
3.22903e-05
3.24674e-05
3.25932e-05
3.26738e-05
3.27125e-05
3.27109e-05
3.26692e-05
3.25862e-05
3.24586e-05
3.22811e-05
3.20442e-05
3.1733e-05
3.13282e-05
3.08107e-05
3.01555e-05
2.93357e-05
2.84817e-05
2.87137e-05
3.52495e-05
9.49297e-05
0.000101413
3.49632e-05
2.88356e-05
2.72711e-05
2.79665e-05
2.88792e-05
2.96552e-05
3.03021e-05
3.08035e-05
3.11864e-05
3.14791e-05
3.1699e-05
3.18566e-05
3.1958e-05
3.2007e-05
3.20054e-05
3.19534e-05
3.18492e-05
3.16893e-05
3.14678e-05
3.11747e-05
3.07926e-05
3.02933e-05
2.965e-05
2.88791e-05
2.79704e-05
2.72758e-05
2.88296e-05
3.49365e-05
0.000101399
9.82731e-05
2.15313e-05
2.82683e-05
3.06574e-05
3.24205e-05
3.35805e-05
3.43153e-05
3.47488e-05
3.49806e-05
3.51155e-05
3.5202e-05
3.52589e-05
3.5296e-05
3.53186e-05
3.53293e-05
3.53291e-05
3.53181e-05
3.5295e-05
3.52572e-05
3.51992e-05
3.51115e-05
3.49757e-05
3.4743e-05
3.43085e-05
3.35732e-05
3.24122e-05
3.06465e-05
2.82523e-05
2.15139e-05
9.82495e-05
0.00025915
0.000129497
0.00010744
9.562e-05
9.00891e-05
8.66481e-05
8.40323e-05
8.17485e-05
7.98491e-05
7.83055e-05
7.70304e-05
7.60018e-05
7.52398e-05
7.4739e-05
7.44923e-05
7.44958e-05
7.47493e-05
7.52565e-05
7.60242e-05
7.70566e-05
7.83297e-05
7.98739e-05
8.17731e-05
8.40551e-05
8.66671e-05
9.01018e-05
9.56228e-05
0.000107429
0.000129468
0.000259091
0.000209581
0.000106316
9.24215e-05
8.49448e-05
8.25549e-05
8.13609e-05
8.05148e-05
7.95836e-05
7.87255e-05
7.80246e-05
7.75527e-05
7.72395e-05
7.70138e-05
7.68648e-05
7.67916e-05
7.6794e-05
7.6872e-05
7.70257e-05
7.72558e-05
7.75721e-05
7.80414e-05
7.87439e-05
7.96039e-05
8.05398e-05
8.13807e-05
8.25622e-05
8.49311e-05
9.23781e-05
0.000106228
0.00020942
7.75622e-05
2.3247e-05
4.07452e-05
4.16304e-05
4.29745e-05
4.33223e-05
4.31019e-05
4.27827e-05
4.23105e-05
4.18095e-05
4.13674e-05
4.10189e-05
4.07662e-05
4.06028e-05
4.05227e-05
4.05224e-05
4.0602e-05
4.07645e-05
4.10157e-05
4.13618e-05
4.18011e-05
4.22997e-05
4.27692e-05
4.30838e-05
4.32896e-05
4.29358e-05
4.15862e-05
4.07037e-05
2.31967e-05
7.75108e-05
8.96088e-05
4.96885e-05
4.06472e-05
3.28733e-05
3.01736e-05
2.95911e-05
2.94303e-05
2.91914e-05
2.89616e-05
2.87604e-05
2.85996e-05
2.84841e-05
2.84071e-05
2.83591e-05
2.83354e-05
2.83329e-05
2.83515e-05
2.83938e-05
2.84646e-05
2.85757e-05
2.87352e-05
2.89393e-05
2.91729e-05
2.94182e-05
2.95893e-05
3.0181e-05
3.28785e-05
4.06296e-05
4.961e-05
8.95728e-05
8.58881e-05
4.87586e-05
3.59072e-05
2.85227e-05
2.52922e-05
2.4641e-05
2.48074e-05
2.50961e-05
2.53531e-05
2.55758e-05
2.57761e-05
2.5939e-05
2.60609e-05
2.61407e-05
2.61789e-05
2.6176e-05
2.61322e-05
2.6047e-05
2.59206e-05
2.57557e-05
2.55576e-05
2.5342e-05
2.50942e-05
2.48188e-05
2.46667e-05
2.53243e-05
2.85413e-05
3.58993e-05
4.86996e-05
8.58923e-05
8.44517e-05
4.49238e-05
3.22052e-05
2.61464e-05
2.43269e-05
2.43034e-05
2.47577e-05
2.52434e-05
2.56525e-05
2.59833e-05
2.62483e-05
2.64536e-05
2.66035e-05
2.67007e-05
2.67474e-05
2.67454e-05
2.66947e-05
2.65942e-05
2.64423e-05
2.62374e-05
2.5976e-05
2.56522e-05
2.52532e-05
2.47799e-05
2.43355e-05
2.43574e-05
2.61633e-05
3.21982e-05
4.48889e-05
8.44797e-05
8.33338e-05
4.1807e-05
2.99582e-05
2.52226e-05
2.4513e-05
2.4938e-05
2.55381e-05
2.60717e-05
2.65005e-05
2.68335e-05
2.70883e-05
2.72795e-05
2.74162e-05
2.75039e-05
2.75462e-05
2.75449e-05
2.75002e-05
2.74108e-05
2.72736e-05
2.70838e-05
2.68326e-05
2.65053e-05
2.60837e-05
2.55569e-05
2.49599e-05
2.45301e-05
2.52243e-05
2.9944e-05
4.17822e-05
8.33623e-05
8.21655e-05
3.98933e-05
2.83353e-05
2.49121e-05
2.49467e-05
2.56229e-05
2.6292e-05
2.68355e-05
2.72524e-05
2.7564e-05
2.77931e-05
2.79586e-05
2.80732e-05
2.81454e-05
2.81799e-05
2.81791e-05
2.81433e-05
2.80703e-05
2.79558e-05
2.77918e-05
2.75653e-05
2.72574e-05
2.68442e-05
2.63026e-05
2.56315e-05
2.49464e-05
2.48978e-05
2.831e-05
3.98816e-05
8.21945e-05
8.11626e-05
3.86708e-05
2.73647e-05
2.49139e-05
2.53757e-05
2.61895e-05
2.68885e-05
2.74262e-05
2.78221e-05
2.81063e-05
2.83063e-05
2.84444e-05
2.85361e-05
2.8592e-05
2.86183e-05
2.86179e-05
2.85909e-05
2.85346e-05
2.84431e-05
2.83061e-05
2.81076e-05
2.78251e-05
2.74301e-05
2.68912e-05
2.61871e-05
2.53626e-05
2.4886e-05
2.73325e-05
3.86638e-05
8.11989e-05
8.05014e-05
3.78459e-05
2.68941e-05
2.51566e-05
2.58006e-05
2.66513e-05
2.73455e-05
2.78618e-05
2.82293e-05
2.84829e-05
2.86533e-05
2.87648e-05
2.88352e-05
2.88762e-05
2.88949e-05
2.88947e-05
2.88756e-05
2.88344e-05
2.87642e-05
2.86531e-05
2.84833e-05
2.82301e-05
2.78618e-05
2.73428e-05
2.66428e-05
2.57825e-05
2.5127e-05
2.68655e-05
3.78434e-05
8.05334e-05
7.99168e-05
3.72687e-05
2.66811e-05
2.54474e-05
2.61831e-05
2.70264e-05
2.76934e-05
2.81768e-05
2.85107e-05
2.87323e-05
2.8874e-05
2.89614e-05
2.9013e-05
2.90412e-05
2.90535e-05
2.90533e-05
2.90408e-05
2.90125e-05
2.8961e-05
2.88737e-05
2.8732e-05
2.85099e-05
2.81746e-05
2.76882e-05
2.70163e-05
2.61659e-05
2.54231e-05
2.66613e-05
3.72683e-05
7.99431e-05
7.94049e-05
3.68615e-05
2.65951e-05
2.57095e-05
2.64944e-05
2.73206e-05
2.79539e-05
2.8401e-05
2.87004e-05
2.88911e-05
2.90067e-05
2.90732e-05
2.91092e-05
2.91271e-05
2.91343e-05
2.91342e-05
2.91269e-05
2.91089e-05
2.90728e-05
2.90063e-05
2.88903e-05
2.86989e-05
2.83981e-05
2.79484e-05
2.73114e-05
2.64805e-05
2.56911e-05
2.6581e-05
3.68617e-05
7.94255e-05
7.89787e-05
3.65783e-05
2.65748e-05
2.59269e-05
2.67368e-05
2.75426e-05
2.81437e-05
2.8557e-05
2.88249e-05
2.89885e-05
2.90821e-05
2.91316e-05
2.91555e-05
2.91657e-05
2.91692e-05
2.91691e-05
2.91656e-05
2.91553e-05
2.91313e-05
2.90817e-05
2.89877e-05
2.88234e-05
2.85543e-05
2.81392e-05
2.75356e-05
2.67265e-05
2.59137e-05
2.65649e-05
3.65787e-05
7.8994e-05
7.86488e-05
3.63888e-05
2.6585e-05
2.60949e-05
2.69156e-05
2.7702e-05
2.82759e-05
2.86613e-05
2.89037e-05
2.90459e-05
2.91225e-05
2.91594e-05
2.91745e-05
2.91794e-05
2.91803e-05
2.91803e-05
2.91793e-05
2.91745e-05
2.91593e-05
2.91222e-05
2.90454e-05
2.89028e-05
2.86596e-05
2.8273e-05
2.76974e-05
2.6909e-05
2.60863e-05
2.65783e-05
3.63889e-05
7.86592e-05
7.84232e-05
3.62736e-05
2.66032e-05
2.62097e-05
2.7034e-05
2.78053e-05
2.83597e-05
2.87253e-05
2.89499e-05
2.90773e-05
2.91425e-05
2.91711e-05
2.91807e-05
2.91822e-05
2.91816e-05
2.91817e-05
2.91823e-05
2.91808e-05
2.91712e-05
2.91426e-05
2.90773e-05
2.89498e-05
2.87248e-05
2.83585e-05
2.78033e-05
2.70307e-05
2.6205e-05
2.6599e-05
3.6273e-05
7.8429e-05
7.83078e-05
3.62209e-05
2.6616e-05
2.62678e-05
2.7093e-05
2.78563e-05
2.84004e-05
2.87559e-05
2.89714e-05
2.90913e-05
2.91507e-05
2.91752e-05
2.91822e-05
2.91821e-05
2.91808e-05
2.91809e-05
2.91822e-05
2.91824e-05
2.91756e-05
2.91511e-05
2.90918e-05
2.89721e-05
2.87566e-05
2.84011e-05
2.78568e-05
2.7093e-05
2.62667e-05
2.66141e-05
3.62194e-05
7.83093e-05
7.83068e-05
3.62208e-05
2.66162e-05
2.62681e-05
2.70934e-05
2.78567e-05
2.84008e-05
2.87562e-05
2.89716e-05
2.90915e-05
2.91509e-05
2.91755e-05
2.91824e-05
2.91824e-05
2.91811e-05
2.91812e-05
2.91826e-05
2.91828e-05
2.9176e-05
2.91517e-05
2.90926e-05
2.89732e-05
2.87582e-05
2.84033e-05
2.78596e-05
2.70964e-05
2.62705e-05
2.66166e-05
3.62189e-05
7.83037e-05
7.842e-05
3.62735e-05
2.6604e-05
2.62106e-05
2.70352e-05
2.78066e-05
2.83608e-05
2.87262e-05
2.89507e-05
2.9078e-05
2.91431e-05
2.91718e-05
2.91815e-05
2.9183e-05
2.91825e-05
2.91826e-05
2.91833e-05
2.91819e-05
2.91725e-05
2.91442e-05
2.90796e-05
2.8953e-05
2.87294e-05
2.83651e-05
2.78119e-05
2.70414e-05
2.62167e-05
2.66069e-05
3.62715e-05
7.84122e-05
7.86431e-05
3.63888e-05
2.65868e-05
2.60971e-05
2.6918e-05
2.77043e-05
2.82779e-05
2.86628e-05
2.89049e-05
2.90469e-05
2.91235e-05
2.91605e-05
2.91758e-05
2.91808e-05
2.91819e-05
2.91819e-05
2.9181e-05
2.91763e-05
2.91612e-05
2.91246e-05
2.90487e-05
2.89077e-05
2.86669e-05
2.82836e-05
2.7712e-05
2.69275e-05
2.61072e-05
2.65927e-05
3.63867e-05
7.86304e-05
7.897e-05
3.65782e-05
2.65784e-05
2.59314e-05
2.6741e-05
2.75462e-05
2.81464e-05
2.8559e-05
2.88264e-05
2.89898e-05
2.90835e-05
2.91332e-05
2.91573e-05
2.91678e-05
2.91715e-05
2.91716e-05
2.91681e-05
2.91578e-05
2.91338e-05
2.90845e-05
2.89915e-05
2.88291e-05
2.85633e-05
2.81531e-05
2.75557e-05
2.67535e-05
2.59456e-05
2.65876e-05
3.65762e-05
7.89522e-05
7.93923e-05
3.68614e-05
2.66016e-05
2.57172e-05
2.65009e-05
2.73254e-05
2.79571e-05
2.84031e-05
2.87018e-05
2.88925e-05
2.90083e-05
2.90752e-05
2.91117e-05
2.91301e-05
2.91377e-05
2.91378e-05
2.91304e-05
2.91121e-05
2.90757e-05
2.9009e-05
2.88935e-05
2.87038e-05
2.84068e-05
2.79636e-05
2.73357e-05
2.65157e-05
2.57352e-05
2.66143e-05
3.68595e-05
7.93695e-05
7.98992e-05
3.72685e-05
2.66915e-05
2.54591e-05
2.61918e-05
2.70319e-05
2.76963e-05
2.81783e-05
2.85117e-05
2.87335e-05
2.88759e-05
2.89641e-05
2.90165e-05
2.90455e-05
2.90584e-05
2.90585e-05
2.90459e-05
2.9017e-05
2.89645e-05
2.8876e-05
2.87336e-05
2.85122e-05
2.81803e-05
2.77012e-05
2.70413e-05
2.62073e-05
2.548e-05
2.6708e-05
3.72673e-05
7.98718e-05
8.04777e-05
3.78463e-05
2.69101e-05
2.51723e-05
2.58104e-05
2.66558e-05
2.73467e-05
2.78616e-05
2.82292e-05
2.84837e-05
2.86555e-05
2.87684e-05
2.88401e-05
2.88823e-05
2.8902e-05
2.89023e-05
2.88831e-05
2.88411e-05
2.87691e-05
2.86554e-05
2.84827e-05
2.82276e-05
2.78605e-05
2.7348e-05
2.66618e-05
2.58239e-05
2.51938e-05
2.69306e-05
3.78467e-05
8.04466e-05
8.11326e-05
3.86727e-05
2.73848e-05
2.49301e-05
2.53829e-05
2.619e-05
2.68859e-05
2.74233e-05
2.78206e-05
2.81069e-05
2.83093e-05
2.84495e-05
2.85432e-05
2.86008e-05
2.86286e-05
2.86292e-05
2.86025e-05
2.85453e-05
2.84511e-05
2.83096e-05
2.81053e-05
2.78169e-05
2.74183e-05
2.68815e-05
2.61893e-05
2.53899e-05
2.49476e-05
2.74063e-05
3.86764e-05
8.11004e-05
8.2141e-05
3.98963e-05
2.83525e-05
2.49214e-05
2.49458e-05
2.56156e-05
2.62837e-05
2.68294e-05
2.72499e-05
2.75653e-05
2.77979e-05
2.79662e-05
2.80834e-05
2.81579e-05
2.81946e-05
2.81957e-05
2.8161e-05
2.80877e-05
2.79703e-05
2.78002e-05
2.75644e-05
2.7245e-05
2.68206e-05
2.62725e-05
2.56053e-05
2.4942e-05
2.49292e-05
2.83717e-05
3.99052e-05
8.21217e-05
8.33037e-05
4.18074e-05
2.99639e-05
2.52175e-05
2.44972e-05
2.492e-05
2.55237e-05
2.60635e-05
2.64988e-05
2.68374e-05
2.70965e-05
2.7291e-05
2.74307e-05
2.75214e-05
2.75669e-05
2.75689e-05
2.75269e-05
2.74386e-05
2.72995e-05
2.71032e-05
2.684e-05
2.64952e-05
2.6053e-05
2.55069e-05
2.48997e-05
2.44794e-05
2.52122e-05
2.99743e-05
4.18288e-05
8.32891e-05
8.44093e-05
4.49286e-05
3.22003e-05
2.61215e-05
2.42946e-05
2.42757e-05
2.47405e-05
2.52376e-05
2.56554e-05
2.59926e-05
2.62619e-05
2.64706e-05
2.66236e-05
2.67244e-05
2.67755e-05
2.67786e-05
2.67332e-05
2.66367e-05
2.64859e-05
2.62764e-05
2.60029e-05
2.56584e-05
2.52311e-05
2.47231e-05
2.42495e-05
2.42667e-05
2.61047e-05
3.22065e-05
4.4957e-05
8.4399e-05
8.58545e-05
4.87741e-05
3.58838e-05
2.84891e-05
2.52524e-05
2.46139e-05
2.47962e-05
2.50981e-05
2.53637e-05
2.55926e-05
2.57966e-05
2.5962e-05
2.60866e-05
2.61704e-05
2.62141e-05
2.62182e-05
2.61823e-05
2.6105e-05
2.5985e-05
2.58207e-05
2.56137e-05
2.53778e-05
2.51032e-05
2.47894e-05
2.45948e-05
2.52261e-05
2.84704e-05
3.58864e-05
4.88108e-05
8.586e-05
8.95941e-05
4.97189e-05
4.06314e-05
3.28511e-05
3.0155e-05
2.95841e-05
2.94343e-05
2.92037e-05
2.89779e-05
2.87785e-05
2.86192e-05
2.85038e-05
2.84273e-05
2.83819e-05
2.83624e-05
2.83657e-05
2.83916e-05
2.84431e-05
2.85252e-05
2.86441e-05
2.88032e-05
2.90009e-05
2.92233e-05
2.9449e-05
2.95905e-05
3.01553e-05
3.28495e-05
4.06339e-05
4.97465e-05
8.962e-05
7.7585e-05
2.32758e-05
4.07648e-05
4.16395e-05
4.29745e-05
4.33211e-05
4.31034e-05
4.27856e-05
4.23142e-05
4.18136e-05
4.13703e-05
4.10202e-05
4.07667e-05
4.06031e-05
4.0523e-05
4.05233e-05
4.06039e-05
4.07683e-05
4.1023e-05
4.13749e-05
4.18201e-05
4.23225e-05
4.2797e-05
4.31208e-05
4.33555e-05
4.30135e-05
4.16787e-05
4.07926e-05
2.33067e-05
7.76229e-05
0.000209651
0.00010634
9.24179e-05
8.49183e-05
8.25136e-05
8.13138e-05
8.04688e-05
7.95509e-05
7.8696e-05
7.79945e-05
7.75041e-05
7.7187e-05
7.69583e-05
7.68056e-05
7.67275e-05
7.67242e-05
7.67959e-05
7.69427e-05
7.71663e-05
7.74808e-05
7.79791e-05
7.86815e-05
7.9537e-05
8.04523e-05
8.13038e-05
8.25134e-05
8.49296e-05
9.24418e-05
0.000106379
0.000209734
0.000189831
9.51657e-05
8.36514e-05
7.75752e-05
7.5859e-05
7.50415e-05
7.44123e-05
7.37885e-05
7.3294e-05
7.29073e-05
7.25581e-05
7.2265e-05
7.20512e-05
7.1913e-05
7.18456e-05
7.18464e-05
7.19153e-05
7.20546e-05
7.22688e-05
7.25619e-05
7.29128e-05
7.32974e-05
7.37883e-05
7.44043e-05
7.50325e-05
7.58533e-05
7.7577e-05
8.36625e-05
9.51978e-05
0.000189901
7.15486e-05
3.14732e-05
5.1727e-05
5.48667e-05
5.77979e-05
5.99415e-05
6.10333e-05
6.10286e-05
6.03274e-05
5.9298e-05
5.82073e-05
5.72352e-05
5.64736e-05
5.59586e-05
5.5701e-05
5.57024e-05
5.59627e-05
5.64796e-05
5.72423e-05
5.82144e-05
5.93038e-05
6.03298e-05
6.1027e-05
6.10294e-05
5.99426e-05
5.78011e-05
5.48704e-05
5.17251e-05
3.15049e-05
7.15756e-05
8.24264e-05
5.75982e-05
5.1001e-05
4.45864e-05
4.02589e-05
3.80537e-05
3.67749e-05
3.58293e-05
3.49837e-05
3.42415e-05
3.35831e-05
3.30437e-05
3.26417e-05
3.23795e-05
3.22502e-05
3.22491e-05
3.23763e-05
3.26371e-05
3.30384e-05
3.35776e-05
3.42361e-05
3.49769e-05
3.5821e-05
3.67628e-05
3.80348e-05
4.02365e-05
4.45613e-05
5.0985e-05
5.76231e-05
8.24399e-05
7.88947e-05
6.0756e-05
4.92114e-05
3.6694e-05
2.97291e-05
2.692e-05
2.59943e-05
2.57084e-05
2.55734e-05
2.54259e-05
2.523e-05
2.5053e-05
2.4917e-05
2.48274e-05
2.47833e-05
2.47827e-05
2.48259e-05
2.49151e-05
2.50519e-05
2.52297e-05
2.54256e-05
2.55699e-05
2.57054e-05
2.599e-05
2.69108e-05
2.97169e-05
3.66734e-05
4.9205e-05
6.07809e-05
7.88968e-05
7.72269e-05
5.86717e-05
4.40594e-05
3.13682e-05
2.52887e-05
2.27962e-05
2.20976e-05
2.21192e-05
2.23219e-05
2.25237e-05
2.26809e-05
2.2794e-05
2.28686e-05
2.2914e-05
2.2936e-05
2.29353e-05
2.2912e-05
2.2866e-05
2.27915e-05
2.2679e-05
2.25221e-05
2.23188e-05
2.21134e-05
2.2086e-05
2.27788e-05
2.52784e-05
3.13517e-05
4.40575e-05
5.8689e-05
7.72249e-05
7.62588e-05
5.68912e-05
3.88132e-05
2.79522e-05
2.32742e-05
2.15767e-05
2.13412e-05
2.16501e-05
2.20586e-05
2.24203e-05
2.27028e-05
2.29083e-05
2.30486e-05
2.31355e-05
2.31771e-05
2.31766e-05
2.31342e-05
2.30468e-05
2.29065e-05
2.27012e-05
2.24187e-05
2.20563e-05
2.16458e-05
2.13331e-05
2.15653e-05
2.32651e-05
2.79511e-05
3.8821e-05
5.69109e-05
7.62675e-05
7.56369e-05
5.45797e-05
3.47544e-05
2.59153e-05
2.23943e-05
2.15038e-05
2.16579e-05
2.20897e-05
2.25426e-05
2.29322e-05
2.32386e-05
2.34651e-05
2.36218e-05
2.37195e-05
2.37662e-05
2.37659e-05
2.37187e-05
2.36207e-05
2.3464e-05
2.32376e-05
2.29312e-05
2.25411e-05
2.2087e-05
2.16537e-05
2.14991e-05
2.23933e-05
2.59193e-05
3.47668e-05
5.45963e-05
7.56511e-05
7.51429e-05
5.21997e-05
3.21185e-05
2.4703e-05
2.20898e-05
2.18041e-05
2.21752e-05
2.26695e-05
2.313e-05
2.35121e-05
2.38086e-05
2.40265e-05
2.41769e-05
2.42705e-05
2.43152e-05
2.4315e-05
2.427e-05
2.41763e-05
2.40258e-05
2.3808e-05
2.35113e-05
2.31289e-05
2.26677e-05
2.2173e-05
2.18027e-05
2.20936e-05
2.47146e-05
3.2122e-05
5.22207e-05
7.51576e-05
7.46324e-05
4.99177e-05
3.04347e-05
2.38393e-05
2.20307e-05
2.21495e-05
2.26571e-05
2.3187e-05
2.36435e-05
2.40076e-05
2.42833e-05
2.44822e-05
2.46177e-05
2.47011e-05
2.47406e-05
2.47405e-05
2.47008e-05
2.46173e-05
2.44817e-05
2.42826e-05
2.40067e-05
2.36422e-05
2.31851e-05
2.26548e-05
2.21478e-05
2.20319e-05
2.38469e-05
3.04346e-05
4.99442e-05
7.46517e-05
7.42286e-05
4.79148e-05
2.93108e-05
2.33554e-05
2.21359e-05
2.24715e-05
2.30574e-05
2.36032e-05
2.40489e-05
2.43913e-05
2.46426e-05
2.48193e-05
2.49368e-05
2.50078e-05
2.5041e-05
2.50409e-05
2.50075e-05
2.49364e-05
2.48187e-05
2.46418e-05
2.43901e-05
2.40472e-05
2.36007e-05
2.30541e-05
2.24679e-05
2.21333e-05
2.33578e-05
2.93092e-05
4.79441e-05
7.42503e-05
7.39207e-05
4.62847e-05
2.85466e-05
2.30963e-05
2.2287e-05
2.27476e-05
2.33728e-05
2.39208e-05
2.43513e-05
2.46709e-05
2.4898e-05
2.50525e-05
2.51522e-05
2.52109e-05
2.52379e-05
2.52378e-05
2.52107e-05
2.51518e-05
2.50519e-05
2.4897e-05
2.46694e-05
2.4349e-05
2.39176e-05
2.33685e-05
2.27424e-05
2.22819e-05
2.30959e-05
2.85458e-05
4.63135e-05
7.39431e-05
7.3693e-05
4.50441e-05
2.80283e-05
2.29595e-05
2.24295e-05
2.2967e-05
2.36107e-05
2.4153e-05
2.45667e-05
2.48647e-05
2.50698e-05
2.52047e-05
2.52886e-05
2.53364e-05
2.53579e-05
2.53578e-05
2.53362e-05
2.52882e-05
2.52039e-05
2.50687e-05
2.4863e-05
2.45642e-05
2.41495e-05
2.3606e-05
2.29612e-05
2.24237e-05
2.29582e-05
2.80291e-05
4.50695e-05
7.37147e-05
7.35334e-05
4.41695e-05
2.76826e-05
2.28862e-05
2.25425e-05
2.3128e-05
2.37795e-05
2.43136e-05
2.47118e-05
2.49917e-05
2.51788e-05
2.52978e-05
2.53692e-05
2.54085e-05
2.54256e-05
2.54255e-05
2.54082e-05
2.53688e-05
2.52971e-05
2.51776e-05
2.49899e-05
2.47093e-05
2.43101e-05
2.37749e-05
2.31222e-05
2.25365e-05
2.28841e-05
2.76835e-05
4.41898e-05
7.35535e-05
7.3435e-05
4.36274e-05
2.74805e-05
2.28511e-05
2.26194e-05
2.32328e-05
2.38872e-05
2.4414e-05
2.48005e-05
2.50673e-05
2.52418e-05
2.53498e-05
2.54126e-05
2.54459e-05
2.54601e-05
2.546e-05
2.54457e-05
2.54121e-05
2.53491e-05
2.52407e-05
2.50657e-05
2.47982e-05
2.44108e-05
2.38829e-05
2.32276e-05
2.26138e-05
2.28483e-05
2.74805e-05
4.36413e-05
7.34527e-05
7.33927e-05
4.33985e-05
2.73943e-05
2.28397e-05
2.26586e-05
2.32844e-05
2.39393e-05
2.44619e-05
2.48423e-05
2.51023e-05
2.52703e-05
2.53727e-05
2.54311e-05
2.54615e-05
2.54742e-05
2.54741e-05
2.54613e-05
2.54307e-05
2.53721e-05
2.52694e-05
2.51009e-05
2.48403e-05
2.44592e-05
2.39356e-05
2.32797e-05
2.26533e-05
2.28362e-05
2.7393e-05
4.34043e-05
7.34078e-05
7.33938e-05
4.33998e-05
2.73957e-05
2.28407e-05
2.26588e-05
2.32842e-05
2.39389e-05
2.44616e-05
2.4842e-05
2.51022e-05
2.52702e-05
2.53726e-05
2.54311e-05
2.54615e-05
2.54741e-05
2.54741e-05
2.54613e-05
2.54308e-05
2.53721e-05
2.52694e-05
2.5101e-05
2.48404e-05
2.44593e-05
2.39358e-05
2.328e-05
2.26538e-05
2.28368e-05
2.7394e-05
4.34022e-05
7.34075e-05
7.3439e-05
4.36391e-05
2.74855e-05
2.28542e-05
2.262e-05
2.32322e-05
2.38862e-05
2.44131e-05
2.47999e-05
2.50669e-05
2.52416e-05
2.53496e-05
2.54125e-05
2.54458e-05
2.546e-05
2.54599e-05
2.54457e-05
2.54122e-05
2.53492e-05
2.52409e-05
2.50659e-05
2.47984e-05
2.44111e-05
2.38835e-05
2.32285e-05
2.26153e-05
2.285e-05
2.74837e-05
4.36355e-05
7.34519e-05
7.35405e-05
4.41892e-05
2.76911e-05
2.28913e-05
2.25435e-05
2.31271e-05
2.37782e-05
2.43125e-05
2.47111e-05
2.49914e-05
2.51787e-05
2.52977e-05
2.53691e-05
2.54083e-05
2.54254e-05
2.54254e-05
2.54082e-05
2.53689e-05
2.52973e-05
2.5178e-05
2.49904e-05
2.47098e-05
2.43107e-05
2.37758e-05
2.31237e-05
2.2539e-05
2.28869e-05
2.76894e-05
4.41806e-05
7.35525e-05
7.37033e-05
4.50708e-05
2.80396e-05
2.29658e-05
2.24308e-05
2.29661e-05
2.36094e-05
2.41522e-05
2.45664e-05
2.48648e-05
2.50701e-05
2.52048e-05
2.52887e-05
2.53364e-05
2.53578e-05
2.53577e-05
2.53363e-05
2.52884e-05
2.52044e-05
2.50693e-05
2.48637e-05
2.45649e-05
2.41503e-05
2.36071e-05
2.2963e-05
2.24266e-05
2.29616e-05
2.80389e-05
4.50574e-05
7.3714e-05
7.39345e-05
4.63163e-05
2.85582e-05
2.31028e-05
2.22883e-05
2.2747e-05
2.33723e-05
2.3921e-05
2.43521e-05
2.46719e-05
2.48989e-05
2.50531e-05
2.51525e-05
2.5211e-05
2.52379e-05
2.52379e-05
2.52109e-05
2.51524e-05
2.50527e-05
2.4898e-05
2.46705e-05
2.43502e-05
2.39187e-05
2.33697e-05
2.27441e-05
2.22849e-05
2.31e-05
2.85611e-05
4.63002e-05
7.39434e-05
7.42462e-05
4.79485e-05
2.93251e-05
2.33624e-05
2.21374e-05
2.24717e-05
2.30583e-05
2.3605e-05
2.40513e-05
2.43935e-05
2.46444e-05
2.48205e-05
2.49374e-05
2.50081e-05
2.50412e-05
2.50413e-05
2.50082e-05
2.49374e-05
2.48201e-05
2.46435e-05
2.43918e-05
2.40488e-05
2.3602e-05
2.30551e-05
2.24688e-05
2.21349e-05
2.33613e-05
2.93309e-05
4.7933e-05
7.42529e-05
7.46544e-05
4.99514e-05
3.0451e-05
2.38457e-05
2.2032e-05
2.21508e-05
2.26598e-05
2.31909e-05
2.36476e-05
2.40112e-05
2.4286e-05
2.44841e-05
2.46188e-05
2.47018e-05
2.47413e-05
2.47414e-05
2.47021e-05
2.46191e-05