/*--------------------------------*- C++ -*----------------------------------*\
| =========                 |                                                 |
| \\      /  F ield         | OpenFOAM: The Open Source CFD Toolbox           |
|  \\    /   O peration     | Version:  2312                                  |
|   \\  /    A nd           | Website:  www.openfoam.com                      |
|    \\/     M anipulation  |                                                 |
\*---------------------------------------------------------------------------*/
FoamFile
{
    version     2.0;
    format      ascii;
    arch        "LSB;label=32;scalar=64";
    class       volScalarField;
    location    "250";
    object      nut;
}
// * * * * * * * * * * * * * * * * * * * * * * * * * * * * * * * * * * * * * //

dimensions      [0 2 -1 0 0 0 0];

internalField   nonuniform List<scalar> 
27000
(
3.95284e-06
6.70824e-06
9.36494e-06
1.17404e-05
1.40481e-05
1.62019e-05
1.81571e-05
1.98084e-05
2.12287e-05
2.24415e-05
2.34413e-05
2.42334e-05
2.48244e-05
2.52173e-05
2.54132e-05
2.5413e-05
2.52165e-05
2.48232e-05
2.42318e-05
2.34395e-05
2.24401e-05
2.12273e-05
1.98071e-05
1.8156e-05
1.62011e-05
1.40479e-05
1.17407e-05
9.36572e-06
6.70905e-06
3.95326e-06
5.75237e-06
1.27987e-06
5.15685e-06
9.07297e-06
1.31543e-05
1.70301e-05
2.06925e-05
2.40989e-05
2.7186e-05
2.99335e-05
3.23223e-05
3.4313e-05
3.58531e-05
3.6902e-05
3.74335e-05
3.74343e-05
3.69043e-05
3.58565e-05
3.43171e-05
3.23261e-05
2.99359e-05
2.71874e-05
2.40995e-05
2.06923e-05
1.7029e-05
1.31532e-05
9.07243e-06
5.15684e-06
1.28016e-06
5.75275e-06
9.2281e-06
7.13821e-06
1.45087e-05
2.61324e-05
3.68606e-05
4.62092e-05
5.47544e-05
6.27762e-05
7.00941e-05
7.65711e-05
8.21299e-05
8.66974e-05
9.01978e-05
9.25687e-05
9.37657e-05
9.37676e-05
9.25745e-05
9.02073e-05
8.67096e-05
8.2141e-05
7.65775e-05
7.00943e-05
6.27726e-05
5.47486e-05
4.62026e-05
3.68556e-05
2.61259e-05
1.45043e-05
7.13976e-06
9.22844e-06
1.21562e-05
1.0833e-05
2.60232e-05
5.26112e-05
7.82396e-05
9.6332e-05
0.000109805
0.000120854
0.000130201
0.000138002
0.000144425
0.000149536
0.000153358
0.000155903
0.000157176
0.000157177
0.000155908
0.000153365
0.000149544
0.00014443
0.000138002
0.000130194
0.000120844
0.000109798
9.63293e-05
7.82397e-05
5.26036e-05
2.6014e-05
1.08331e-05
1.21558e-05
1.49202e-05
1.44653e-05
3.68321e-05
7.61424e-05
0.000113256
0.000139096
0.000155926
0.000167732
0.000176681
0.000183216
0.000188301
0.000192245
0.000195128
0.000197016
0.000197952
0.000197953
0.000197019
0.000195132
0.00019225
0.000188304
0.00018322
0.000176676
0.000167723
0.000155922
0.000139096
0.000113254
7.61306e-05
3.6823e-05
1.44651e-05
1.4919e-05
1.74804e-05
1.84011e-05
4.76542e-05
9.51724e-05
0.000137744
0.000167092
0.000185304
0.000196708
0.000204253
0.000209389
0.000213014
0.000215623
0.000217449
0.000218615
0.000219185
0.000219186
0.000218618
0.000217453
0.000215626
0.000213016
0.00020939
0.00020425
0.000196703
0.000185298
0.000167078
0.000137734
9.51601e-05
4.76477e-05
1.84016e-05
1.74786e-05
1.98126e-05
2.25463e-05
5.85389e-05
0.000111441
0.000155669
0.000185002
0.000202737
0.000213118
0.000219286
0.000223062
0.000225457
0.000227022
0.000228042
0.000228665
0.000228962
0.000228963
0.000228667
0.000228046
0.000227024
0.000225458
0.000223062
0.000219283
0.000213114
0.000202732
0.000184995
0.000155664
0.000111437
5.85432e-05
2.25489e-05
1.98103e-05
2.18969e-05
2.67458e-05
6.91001e-05
0.000125556
0.00016978
0.00019726
0.000213275
0.000222178
0.000227038
0.000229695
0.000231171
0.000232012
0.000232498
0.00023277
0.000232893
0.000232894
0.000232772
0.000232501
0.000232014
0.000231172
0.000229694
0.000227036
0.000222176
0.000213274
0.000197262
0.000169792
0.000125567
6.91171e-05
2.67513e-05
2.18936e-05
2.37104e-05
3.08734e-05
7.89728e-05
0.000137662
0.000180944
0.00020601
0.000219923
0.000227235
0.00023091
0.000232687
0.000233513
0.000233883
0.000234042
0.000234108
0.000234132
0.000234133
0.00023411
0.000234044
0.000233884
0.000233513
0.000232687
0.00023091
0.000227235
0.000219927
0.00020602
0.000180966
0.000137681
7.89951e-05
3.08805e-05
2.37069e-05
2.52651e-05
3.47684e-05
8.79256e-05
0.000147802
0.00018883
0.000212086
0.000224182
0.000230101
0.000232802
0.000233916
0.0002343
0.000234379
0.000234354
0.000234311
0.000234284
0.000234285
0.000234312
0.000234355
0.00023438
0.000234301
0.000233917
0.000232804
0.000230105
0.000224188
0.000212096
0.000188844
0.00014782
8.7945e-05
3.47756e-05
2.52618e-05
2.65612e-05
3.82764e-05
9.57479e-05
0.000156294
0.000195392
0.000216553
0.000227007
0.00023177
0.000233711
0.000234349
0.000234445
0.000234355
0.000234233
0.000234139
0.000234091
0.000234091
0.00023414
0.000234234
0.000234356
0.000234446
0.000234351
0.000233714
0.000231774
0.000227013
0.000216561
0.000195404
0.000156311
9.57651e-05
3.82831e-05
2.65583e-05
2.75979e-05
4.12602e-05
0.00010222
0.000163072
0.000200506
0.000219851
0.000228927
0.000232771
0.000234146
0.000234455
0.00023437
0.000234188
0.000234023
0.000233911
0.000233856
0.000233856
0.000233911
0.000234024
0.000234189
0.000234372
0.000234457
0.000234149
0.000232776
0.000228932
0.000219858
0.000200516
0.000163087
0.000102234
4.1266e-05
2.75956e-05
2.83755e-05
4.36041e-05
0.000107188
0.000168149
0.000204231
0.000222173
0.000230206
0.000233377
0.000234354
0.000234448
0.000234255
0.000234027
0.000233846
0.000233732
0.000233677
0.000233677
0.000233732
0.000233847
0.000234027
0.000234256
0.000234449
0.000234356
0.00023338
0.00023021
0.000222179
0.000204241
0.000168167
0.000107199
4.36084e-05
2.83738e-05
2.88939e-05
4.52178e-05
0.000110553
0.000171547
0.00020666
0.000223649
0.00023099
0.000233724
0.000234452
0.000234416
0.000234165
0.000233916
0.000233732
0.00023362
0.000233568
0.000233568
0.00023362
0.000233732
0.000233915
0.000234165
0.000234416
0.000234452
0.000233725
0.000230991
0.000223651
0.000206665
0.000171557
0.000110557
4.522e-05
2.88931e-05
2.91534e-05
4.60395e-05
0.000112248
0.000173241
0.000207855
0.000224364
0.000231361
0.000233882
0.00023449
0.000234394
0.000234117
0.00023386
0.000233677
0.000233567
0.000233518
0.000233517
0.000233567
0.000233676
0.000233859
0.000234116
0.000234392
0.000234488
0.00023388
0.000231359
0.000224362
0.000207853
0.000173241
0.000112245
4.60393e-05
2.91534e-05
2.91538e-05
4.60385e-05
0.000112245
0.000173239
0.000207854
0.000224364
0.000231361
0.000233881
0.000234489
0.000234392
0.000234116
0.000233858
0.000233675
0.000233565
0.000233515
0.000233515
0.000233564
0.000233673
0.000233856
0.000234113
0.000234389
0.000234484
0.000233876
0.000231354
0.000224356
0.000207845
0.000173227
0.000112234
4.60355e-05
2.91547e-05
2.88951e-05
4.52147e-05
0.000110545
0.000171541
0.000206657
0.000223648
0.000230989
0.000233722
0.000234448
0.000234412
0.00023416
0.000233909
0.000233725
0.000233612
0.00023356
0.00023356
0.000233611
0.000233724
0.000233907
0.000234156
0.000234407
0.000234442
0.000233714
0.000230979
0.000223636
0.000206642
0.000171519
0.000110527
4.52089e-05
2.8897e-05
2.83774e-05
4.3599e-05
0.000107176
0.00016814
0.000204229
0.000222173
0.000230205
0.000233375
0.00023435
0.000234441
0.000234247
0.000234017
0.000233835
0.000233719
0.000233664
0.000233663
0.000233718
0.000233834
0.000234015
0.000234244
0.000234437
0.000234343
0.000233365
0.000230193
0.000222158
0.000204209
0.00016811
0.000107151
4.35905e-05
2.83802e-05
2.76006e-05
4.12533e-05
0.000102204
0.000163064
0.000200506
0.000219853
0.000228927
0.000232769
0.00023414
0.000234447
0.000234359
0.000234174
0.000234007
0.000233893
0.000233837
0.000233837
0.000233893
0.000234007
0.000234173
0.000234358
0.000234444
0.000234135
0.000232761
0.000228915
0.000219838
0.000200486
0.000163034
0.000102174
4.12423e-05
2.76043e-05
2.65645e-05
3.8268e-05
9.57296e-05
0.000156288
0.000195395
0.000216556
0.000227008
0.000231767
0.000233705
0.000234339
0.000234432
0.000234338
0.000234214
0.000234117
0.000234067
0.000234067
0.000234117
0.000234214
0.000234339
0.000234432
0.000234339
0.000233702
0.000231762
0.000226999
0.000216544
0.000195376
0.000156258
9.56955e-05
3.8255e-05
2.65688e-05
2.5269e-05
3.4759e-05
8.79063e-05
0.000147797
0.000188833
0.000212089
0.000224182
0.000230098
0.000232795
0.000233905
0.000234285
0.00023436
0.000234331
0.000234285
0.000234256
0.000234256
0.000234285
0.000234332
0.000234362
0.000234287
0.000233908
0.000232796
0.000230097
0.000224177
0.000212079
0.000188816
0.00014777
8.78709e-05
3.47448e-05
2.52737e-05
2.37146e-05
3.08636e-05
7.89539e-05
0.000137659
0.000180934
0.00020601
0.000219921
0.000227229
0.000230902
0.000232674
0.000233497
0.000233862
0.000234018
0.00023408
0.000234101
0.000234101
0.00023408
0.000234019
0.000233865
0.000233501
0.000232679
0.000230907
0.000227233
0.000219922
0.000206005
0.000180912
0.000137637
7.892e-05
3.08492e-05
2.37194e-05
2.19012e-05
2.67371e-05
6.90863e-05
0.000125562
0.000169783
0.000197261
0.000213268
0.000222167
0.000227025
0.000229681
0.000231154
0.000231991
0.000232473
0.00023274
0.000232861
0.000232861
0.00023274
0.000232473
0.000231993
0.000231159
0.000229687
0.000227033
0.000222176
0.000213277
0.000197268
0.000169783
0.000125556
6.90619e-05
2.67244e-05
2.19056e-05
1.9816e-05
2.25401e-05
5.85338e-05
0.000111454
0.000155674
0.000184993
0.000202719
0.000213099
0.00021927
0.000223047
0.000225441
0.000227002
0.000228017
0.000228635
0.000228929
0.000228928
0.000228634
0.000228017
0.000227003
0.000225444
0.000223054
0.00021928
0.000213111
0.000202733
0.000185013
0.000155694
0.000111467
5.85237e-05
2.25312e-05
1.98191e-05
1.74832e-05
1.83965e-05
4.76568e-05
9.51822e-05
0.000137734
0.000167072
0.000185271
0.000196683
0.000204235
0.000209373
0.000212997
0.000215602
0.000217423
0.000218583
0.000219149
0.000219148
0.000218581
0.000217421
0.000215602
0.000212999
0.000209377
0.000204247
0.000196699
0.000185291
0.000167106
0.000137767
9.52116e-05
4.76633e-05
1.8391e-05
1.74854e-05
1.49223e-05
1.4462e-05
3.68371e-05
7.61412e-05
0.000113222
0.00013905
0.000155889
0.000167714
0.000176664
0.00018319
0.000188281
0.000192218
0.000195091
0.00019697
0.000197901
0.0001979
0.000196966
0.000195085
0.000192214
0.000188278
0.000183182
0.000176672
0.000167735
0.000155914
0.00013908
0.000113261
7.61827e-05
3.68541e-05
1.44585e-05
1.49235e-05
1.21573e-05
1.08302e-05
2.60289e-05
5.26013e-05
7.82096e-05
9.6304e-05
0.000109789
0.000120846
0.000130191
0.000137984
0.000144394
0.000149488
0.000153295
0.000155828
0.000157092
0.000157088
0.000155818
0.000153281
0.000149473
0.000144382
0.000137978
0.000130195
0.000120861
0.000109813
9.63358e-05
7.82493e-05
5.26455e-05
2.60505e-05
1.08279e-05
1.21575e-05
9.22824e-06
7.13447e-06
1.45138e-05
2.61348e-05
3.68561e-05
4.62027e-05
5.47469e-05
6.27644e-05
7.00752e-05
7.65416e-05
8.20835e-05
8.66345e-05
9.01217e-05
9.24812e-05
9.36688e-05
9.36638e-05
9.24669e-05
9.00994e-05
8.66062e-05
8.20548e-05
7.6518e-05
7.00573e-05
6.27548e-05
5.47479e-05
4.62153e-05
3.68751e-05
2.61572e-05
1.45247e-05
7.13129e-06
9.22763e-06
5.75232e-06
1.27924e-06
5.15612e-06
9.07208e-06
1.3152e-05
1.7026e-05
2.0687e-05
2.40922e-05
2.71778e-05
2.99229e-05
3.23059e-05
3.4292e-05
3.58285e-05
3.6874e-05
3.74023e-05
3.74001e-05
3.68678e-05
3.58186e-05
3.42793e-05
3.22923e-05
2.99104e-05
2.71659e-05
2.40819e-05
2.06792e-05
1.70215e-05
1.31495e-05
9.07119e-06
5.15482e-06
1.27821e-06
5.75169e-06
3.9525e-06
6.70744e-06
9.36474e-06
1.17411e-05
1.40499e-05
1.62046e-05
1.81608e-05
1.98129e-05
2.1234e-05
2.24478e-05
2.34497e-05
2.42429e-05
2.48349e-05
2.52287e-05
2.54256e-05
2.54261e-05
2.52303e-05
2.48375e-05
2.42462e-05
2.34533e-05
2.24509e-05
2.1237e-05
1.98155e-05
1.81629e-05
1.62061e-05
1.40507e-05
1.17412e-05
9.36432e-06
6.70684e-06
3.95212e-06
3.55372e-06
6.07644e-06
8.68452e-06
1.1066e-05
1.34501e-05
1.5704e-05
1.77789e-05
1.95514e-05
2.10871e-05
2.2411e-05
2.35342e-05
2.44451e-05
2.51317e-05
2.55907e-05
2.58207e-05
2.5821e-05
2.55917e-05
2.51334e-05
2.44473e-05
2.35368e-05
2.2413e-05
2.10892e-05
1.95536e-05
1.77814e-05
1.57058e-05
1.34508e-05
1.10652e-05
8.6827e-06
6.07396e-06
3.55249e-06
5.10912e-06
1.60186e-06
7.42712e-06
1.0994e-05
1.45752e-05
1.75994e-05
2.02145e-05
2.26159e-05
2.46988e-05
2.64752e-05
2.79425e-05
2.91049e-05
2.99743e-05
3.05544e-05
3.08448e-05
3.08443e-05
3.0553e-05
2.99718e-05
2.91011e-05
2.79381e-05
2.64712e-05
2.46949e-05
2.26116e-05
2.02092e-05
1.75885e-05
1.4565e-05
1.09854e-05
7.42272e-06
1.59862e-06
5.10783e-06
8.67358e-06
1.0145e-05
1.32157e-05
1.67233e-05
2.18949e-05
2.73531e-05
3.24006e-05
3.67968e-05
4.0781e-05
4.43201e-05
4.73142e-05
4.97548e-05
5.16044e-05
5.28248e-05
5.34329e-05
5.34296e-05
5.28146e-05
5.15813e-05
4.97183e-05
4.72735e-05
4.4286e-05
4.07708e-05
3.67947e-05
3.24034e-05
2.73602e-05
2.19011e-05
1.67294e-05
1.32181e-05
1.01321e-05
8.67196e-06
1.1564e-05
1.33609e-05
1.79009e-05
2.57337e-05
3.60602e-05
4.67907e-05
5.62272e-05
6.43922e-05
7.15982e-05
7.79856e-05
8.35056e-05
8.79931e-05
9.13789e-05
9.36282e-05
9.47424e-05
9.47324e-05
9.35985e-05
9.13297e-05
8.79298e-05
8.3443e-05
7.79417e-05
7.15885e-05
6.44061e-05
5.62626e-05
4.68327e-05
3.60726e-05
2.57383e-05
1.79051e-05
1.33467e-05
1.15643e-05
1.44282e-05
1.58534e-05
2.28503e-05
3.60279e-05
5.47294e-05
7.43404e-05
9.04079e-05
0.000102768
0.000112792
0.000121395
0.000128416
0.000133903
0.000137958
0.000140621
0.000141906
0.0001419
0.000140601
0.000137927
0.000133866
0.000128384
0.000121376
0.000112802
0.000102808
9.0481e-05
7.44169e-05
5.4775e-05
3.60435e-05
2.28568e-05
1.58411e-05
1.44303e-05
1.71492e-05
1.80836e-05
2.86791e-05
4.72614e-05
7.38632e-05
0.000100587
0.000122676
0.000138402
0.000149823
0.000158538
0.000165245
0.000170302
0.000173944
0.000176301
0.000177447
0.000177443
0.00017629
0.000173928
0.000170286
0.000165233
0.000158534
0.000149833
0.000138426
0.000122723
0.000100647
7.39097e-05
4.72758e-05
2.86851e-05
1.8072e-05
1.71517e-05
1.96646e-05
2.05452e-05
3.40315e-05
5.84322e-05
9.12614e-05
0.000122863
0.000147173
0.000164347
0.000176236
0.000184609
0.000190606
0.000194889
0.000197853
0.000199723
0.000200625
0.000200623
0.000199717
0.000197844
0.000194879
0.000190598
0.000184604
0.000176235
0.000164352
0.000147187
0.000122886
9.1265e-05
5.84149e-05
3.40201e-05
2.05393e-05
1.96675e-05
2.19697e-05
2.30241e-05
3.90676e-05
6.88741e-05
0.000106139
0.000139957
0.000164944
0.000182225
0.000193818
0.000201556
0.000206751
0.00021024
0.000212532
0.000213926
0.000214585
0.000214583
0.000213921
0.000212525
0.000210232
0.000206743
0.000201548
0.000193811
0.00018222
0.000164941
0.000139948
0.000106095
6.87981e-05
3.90192e-05
2.30175e-05
2.19739e-05
2.40687e-05
2.53345e-05
4.39133e-05
7.87089e-05
0.000118958
0.000153239
0.000177836
0.000194425
0.000205231
0.000212143
0.000216529
0.000219296
0.000221007
0.000221999
0.000222453
0.000222452
0.000221995
0.000221002
0.000219289
0.000216521
0.000212134
0.000205222
0.000194416
0.000177824
0.000153214
0.00011889
7.86101e-05
4.38624e-05
2.53297e-05
2.40727e-05
2.59072e-05
2.74137e-05
4.83433e-05
8.73623e-05
0.000130115
0.000163756
0.0001873
0.000202788
0.000212582
0.000218603
0.000222229
0.000224376
0.000225616
0.000226292
0.000226589
0.000226588
0.000226289
0.000225612
0.00022437
0.000222223
0.000218595
0.000212574
0.000202779
0.000187288
0.000163734
0.000130069
8.728e-05
4.83211e-05
2.74117e-05
2.59107e-05
2.74646e-05
2.9226e-05
5.21827e-05
9.45242e-05
0.000138453
0.000171695
0.000194169
0.000208516
0.000217296
0.000222482
0.000225445
0.000227086
0.000227962
0.000228402
0.000228584
0.000228583
0.000228401
0.000227959
0.000227082
0.00022544
0.000222476
0.00021729
0.000208509
0.000194161
0.00017168
0.00013842
9.44607e-05
5.2169e-05
2.92257e-05
2.74675e-05
2.87267e-05
3.07356e-05
5.53844e-05
0.00010027
0.000144784
0.000177531
0.000199054
0.000212395
0.000220296
0.000224776
0.000227205
0.000228456
0.000229065
0.000229338
0.00022944
0.000229439
0.000229337
0.000229063
0.000228454
0.000227202
0.000224773
0.000220292
0.000212392
0.00019905
0.000177523
0.000144762
0.000100224
5.53755e-05
3.07364e-05
2.87288e-05
2.96823e-05
3.19077e-05
5.7888e-05
0.000104645
0.000149431
0.000181673
0.000202407
0.000214948
0.000222162
0.000226104
0.000228135
0.000229108
0.000229533
0.000229695
0.000229745
0.000229745
0.000229695
0.000229532
0.000229108
0.000228134
0.000226103
0.000222161
0.000214948
0.000202407
0.000181671
0.000149421
0.000104621
5.78845e-05
3.19094e-05
2.96837e-05
3.03235e-05
3.27113e-05
5.96112e-05
0.000107627
0.000152515
0.000184351
0.000204516
0.0002165
0.000223246
0.000226827
0.000228599
0.000229395
0.000229705
0.000229801
0.00022982
0.000229821
0.000229802
0.000229706
0.000229397
0.000228601
0.00022683
0.000223249
0.000216505
0.000204521
0.000184356
0.000152516
0.000107619
5.96121e-05
3.27134e-05
3.03241e-05
3.06451e-05
3.31236e-05
6.04938e-05
0.000109132
0.000154055
0.00018567
0.000205536
0.000217236
0.000223744
0.000227146
0.00022879
0.0002295
0.000229756
0.000229821
0.000229827
0.000229827
0.000229823
0.000229759
0.000229504
0.000228795
0.000227152
0.000223752
0.000217245
0.000205547
0.000185681
0.000154066
0.000109137
6.04981e-05
3.31257e-05
3.0645e-05
3.06449e-05
3.31241e-05
6.04946e-05
0.000109132
0.000154054
0.000185668
0.000205535
0.000217235
0.000223744
0.000227146
0.00022879
0.0002295
0.000229757
0.000229822
0.000229828
0.000229829
0.000229825
0.000229761
0.000229506
0.000228797
0.000227156
0.000223756
0.000217249
0.000205552
0.000185687
0.000154075
0.000109151
6.05032e-05
3.3127e-05
3.06441e-05
3.03229e-05
3.27133e-05
5.96144e-05
0.000107627
0.000152513
0.000184348
0.000204513
0.000216498
0.000223244
0.000226826
0.000228599
0.000229396
0.000229708
0.000229804
0.000229825
0.000229826
0.000229807
0.000229712
0.000229403
0.000228609
0.000226839
0.00022326
0.000216517
0.000204535
0.000184374
0.000152543
0.00010766
5.9628e-05
3.27173e-05
3.03213e-05
2.96814e-05
3.19111e-05
5.78939e-05
0.000104648
0.00014943
0.000181669
0.000202402
0.000214943
0.000222158
0.000226101
0.000228134
0.000229109
0.000229536
0.0002297
0.000229751
0.000229752
0.000229703
0.000229541
0.000229118
0.000228145
0.000226116
0.000222176
0.000214965
0.000202428
0.000181701
0.000149471
0.000104696
5.79125e-05
3.19157e-05
2.9679e-05
2.87253e-05
3.07399e-05
5.53945e-05
0.000100284
0.000144788
0.000177527
0.000199046
0.000212387
0.000220289
0.000224771
0.000227202
0.000228456
0.000229068
0.000229344
0.000229448
0.000229449
0.000229348
0.000229074
0.000228465
0.000227214
0.000224786
0.000220308
0.000212411
0.000199075
0.000177564
0.00014484
0.000100351
5.54184e-05
3.07452e-05
2.87222e-05
2.74627e-05
2.9231e-05
5.21987e-05
9.4549e-05
0.00013846
0.000171689
0.000194158
0.000208502
0.000217284
0.000222472
0.000225439
0.000227084
0.000227964
0.000228408
0.000228593
0.000228594
0.000228413
0.000227971
0.000227093
0.000225451
0.000222487
0.000217303
0.000208525
0.000194187
0.000171729
0.000138518
9.46272e-05
5.22263e-05
2.92369e-05
2.74591e-05
2.59047e-05
2.74186e-05
4.83626e-05
8.73964e-05
0.000130126
0.000163749
0.000187283
0.000202769
0.000212564
0.000218588
0.000222218
0.00022437
0.000225616
0.000226297
0.000226597
0.000226599
0.000226302
0.000225624
0.00022438
0.00022223
0.000218601
0.000212579
0.000202788
0.000187309
0.000163787
0.000130186
8.74792e-05
4.83953e-05
2.74253e-05
2.59006e-05
2.40655e-05
2.53393e-05
4.39409e-05
7.87509e-05
0.000118984
0.000153231
0.000177815
0.000194401
0.000205207
0.000212122
0.000216513
0.000219286
0.000221004
0.000222001
0.000222461
0.000222463
0.000222008
0.000221015
0.000219298
0.000216525
0.000212133
0.000205218
0.000194412
0.000177831
0.000153261
0.000119047
7.88287e-05
4.39838e-05
2.53468e-05
2.40614e-05
2.1966e-05
2.30282e-05
3.90951e-05
6.8906e-05
0.000106146
0.000139938
0.000164918
0.000182196
0.000193788
0.000201529
0.00020673
0.000210227
0.000212527
0.000213927
0.000214591
0.000214594
0.000213936
0.000212541
0.000210242
0.000206744
0.000201539
0.000193792
0.000182196
0.000164917
0.000139942
0.000106171
6.89552e-05
3.91303e-05
2.30353e-05
2.19623e-05
1.96619e-05
2.05474e-05
3.40404e-05
5.84385e-05
9.12503e-05
0.000122839
0.000147145
0.000164315
0.000176202
0.000184579
0.000190584
0.000194877
0.00019785
0.000199727
0.000200634
0.000200639
0.00019974
0.00019787
0.000194899
0.000190602
0.000184589
0.0001762
0.000164301
0.000147121
0.00012281
9.12312e-05
5.84472e-05
3.40579e-05
2.05531e-05
1.96601e-05
1.71462e-05
1.8085e-05
2.86759e-05
4.72489e-05
7.38315e-05
0.000100553
0.000122642
0.000138364
0.000149788
0.000158515
0.000165233
0.000170302
0.000173955
0.000176319
0.000177471
0.000177478
0.00017634
0.000173988
0.000170338
0.000165263
0.000158532
0.000149783
0.000138335
0.000122594
0.000100488
7.37719e-05
4.72252e-05
2.8674e-05
1.80949e-05
1.71451e-05
1.44246e-05
1.58569e-05
2.28471e-05
3.60153e-05
5.46973e-05
7.42937e-05
9.03564e-05
0.000102735
0.000112778
0.000121405
0.000128434
0.000133936
0.000138006
0.00014068
0.000141972
0.000141984
0.000140715
0.00013806
0.000133999
0.000128491
0.00012145
0.000112786
0.000102706
9.0289e-05
7.42118e-05
5.46278e-05
3.59801e-05
2.28396e-05
1.58663e-05
1.4424e-05
1.15617e-05
1.33654e-05
1.7891e-05
2.57352e-05
3.60515e-05
4.6758e-05
5.61974e-05
6.43787e-05
7.16026e-05
7.80151e-05
8.35587e-05
8.80661e-05
9.14681e-05
9.37362e-05
9.48727e-05
9.48886e-05
9.37821e-05
9.15388e-05
8.81535e-05
8.36435e-05
7.80787e-05
7.1635e-05
6.43799e-05
5.61657e-05
4.67065e-05
3.60034e-05
2.57063e-05
1.78815e-05
1.33727e-05
1.1562e-05
8.67269e-06
1.01504e-05
1.32093e-05
1.6722e-05
2.18963e-05
2.73522e-05
3.23983e-05
3.67968e-05
4.07846e-05
4.43324e-05
4.73443e-05
4.97921e-05
5.16435e-05
5.28705e-05
5.34861e-05
5.34907e-05
5.28842e-05
5.16668e-05
4.98337e-05
4.73897e-05
4.43627e-05
4.08077e-05
3.68109e-05
3.23999e-05
2.73399e-05
2.18819e-05
1.67108e-05
1.32026e-05
1.01527e-05
8.67358e-06
5.10966e-06
1.60383e-06
7.43056e-06
1.09972e-05
1.45778e-05
1.7602e-05
2.02187e-05
2.26196e-05
2.47023e-05
2.648e-05
2.79521e-05
2.91179e-05
2.99893e-05
3.0571e-05
3.08628e-05
3.08636e-05
3.05732e-05
2.99928e-05
2.91228e-05
2.79575e-05
2.64842e-05
2.4707e-05
2.26248e-05
2.02248e-05
1.7614e-05
1.45889e-05
1.10053e-05
7.4334e-06
1.60593e-06
5.11079e-06
3.55419e-06
6.07697e-06
8.68417e-06
1.10642e-05
1.34468e-05
1.56997e-05
1.77742e-05
1.95478e-05
2.10836e-05
2.24073e-05
2.35278e-05
2.44379e-05
2.51239e-05
2.55822e-05
2.58114e-05
2.5811e-05
2.55808e-05
2.51218e-05
2.44352e-05
2.35249e-05
2.24057e-05
2.10823e-05
1.95467e-05
1.77731e-05
1.56992e-05
1.34471e-05
1.10649e-05
8.68506e-06
6.07757e-06
3.5547e-06
3.38096e-06
5.74689e-06
8.26038e-06
1.05737e-05
1.28924e-05
1.50817e-05
1.70926e-05
1.88283e-05
2.03495e-05
2.16668e-05
2.27659e-05
2.36468e-05
2.43106e-05
2.47549e-05
2.49776e-05
2.49777e-05
2.47553e-05
2.43112e-05
2.36475e-05
2.27665e-05
2.16676e-05
2.035e-05
1.88282e-05
1.70916e-05
1.50806e-05
1.28916e-05
1.05733e-05
8.26045e-06
5.74736e-06
3.38129e-06
4.90529e-06
2.58641e-06
1.07721e-05
1.6091e-05
2.1183e-05
2.56746e-05
2.9475e-05
3.24351e-05
3.47023e-05
3.64218e-05
3.77176e-05
3.86865e-05
3.9383e-05
3.98361e-05
4.00597e-05
4.00595e-05
3.98355e-05
3.93819e-05
3.86847e-05
3.77146e-05
3.64174e-05
3.46965e-05
3.24287e-05
2.94691e-05
2.56731e-05
2.1183e-05
1.60912e-05
1.07696e-05
2.58864e-06
4.90582e-06
8.31616e-06
1.3209e-05
1.72604e-05
2.10024e-05
2.40497e-05
2.71951e-05
3.02271e-05
3.31141e-05
3.58154e-05
3.83199e-05
4.04948e-05
4.22806e-05
4.36486e-05
4.45845e-05
4.5057e-05
4.5054e-05
4.45761e-05
4.36384e-05
4.227e-05
4.04833e-05
3.83078e-05
3.57972e-05
3.30988e-05
3.0216e-05
2.71866e-05
2.40449e-05
2.09949e-05
1.72523e-05
1.32132e-05
8.31656e-06
1.10807e-05
1.83794e-05
2.33115e-05
2.47524e-05
2.86239e-05
3.49606e-05
4.15712e-05
4.77384e-05
5.33295e-05
5.81814e-05
6.21431e-05
6.53363e-05
6.77489e-05
6.93685e-05
7.01854e-05
7.01867e-05
6.93731e-05
6.77582e-05
6.53504e-05
6.21591e-05
5.81932e-05
5.33246e-05
4.77362e-05
4.1577e-05
3.4974e-05
2.86506e-05
2.47551e-05
2.33081e-05
1.8386e-05
1.10809e-05
1.37958e-05
2.23157e-05
2.64247e-05
2.9427e-05
3.86701e-05
5.03557e-05
6.16329e-05
7.157e-05
7.98758e-05
8.69692e-05
9.29009e-05
9.76411e-05
0.00010115
0.000103473
0.000104693
0.000104692
0.000103475
0.000101155
9.76482e-05
9.29083e-05
8.69725e-05
7.98663e-05
7.15482e-05
6.15907e-05
5.0316e-05
3.86846e-05
2.94273e-05
2.64215e-05
2.2322e-05
1.37961e-05
1.64051e-05
2.57311e-05
2.86973e-05
3.58468e-05
5.05075e-05
6.8134e-05
8.52764e-05
0.000100735
0.000113032
0.000122656
0.000130191
0.000135924
0.000139949
0.000142519
0.000143796
0.000143798
0.000142524
0.000139955
0.000135926
0.000130193
0.000122658
0.000113033
0.000100729
8.52364e-05
6.80942e-05
5.04874e-05
3.58467e-05
2.86947e-05
2.57383e-05
1.64067e-05
1.88681e-05
2.83023e-05
3.10978e-05
4.35745e-05
6.28874e-05
8.58665e-05
0.000109379
0.000128518
0.000142558
0.000152862
0.000160494
0.000166086
0.000169974
0.000172423
0.000173614
0.000173615
0.000172428
0.000169979
0.00016609
0.000160498
0.000152865
0.00014256
0.000128517
0.000109371
8.58425e-05
6.28827e-05
4.35726e-05
3.10932e-05
2.8305e-05
1.88707e-05
2.11399e-05
3.03637e-05
3.41665e-05
5.12336e-05
7.48424e-05
0.000103151
0.000129588
0.000149866
0.000164506
0.000174893
0.000182252
0.00018742
0.000190916
0.000193078
0.000194113
0.000194114
0.000193081
0.00019092
0.000187423
0.000182255
0.000174897
0.000164509
0.000149867
0.000129584
0.000103142
7.48627e-05
5.12703e-05
3.41559e-05
3.03675e-05
2.11427e-05
2.31754e-05
3.20368e-05
3.755e-05
5.76933e-05
8.53728e-05
0.000117844
0.000145178
0.000165583
0.000180071
0.000190123
0.000197018
0.000201682
0.000204737
0.000206579
0.000207445
0.000207445
0.00020658
0.000204738
0.000201684
0.000197019
0.000190125
0.000180072
0.000165581
0.000145171
0.000117833
8.53883e-05
5.77315e-05
3.75347e-05
3.20438e-05
2.31791e-05
2.49689e-05
3.34016e-05
4.08836e-05
6.36871e-05
9.53199e-05
0.000129768
0.000157103
0.000177036
0.000190957
0.000200427
0.000206749
0.000210888
0.000213508
0.000215044
0.000215751
0.000215751
0.000215044
0.000213508
0.000210888
0.000206749
0.000200426
0.000190955
0.000177032
0.000157094
0.000129755
9.53034e-05
6.37121e-05
4.08582e-05
3.34107e-05
2.49731e-05
2.65e-05
3.45194e-05
4.39479e-05
6.89515e-05
0.000103969
0.000139061
0.000166067
0.000185311
0.000198503
0.000207298
0.000213021
0.000216653
0.000218876
0.000220138
0.000220707
0.000220707
0.000220137
0.000218875
0.000216651
0.000213018
0.000207294
0.000198499
0.000185304
0.000166055
0.000139041
0.000103941
6.89662e-05
4.39262e-05
3.45296e-05
2.65044e-05
2.77495e-05
3.5421e-05
4.65311e-05
7.32779e-05
0.000110848
0.000146128
0.000172645
0.000191179
0.000203652
0.000211798
0.000216968
0.000220152
0.000222036
0.000223071
0.000223526
0.000223525
0.00022307
0.000222034
0.000220149
0.000216964
0.000211792
0.000203645
0.00019117
0.000172631
0.000146105
0.000110816
7.32876e-05
4.65189e-05
3.54309e-05
2.77538e-05
2.87014e-05
3.61124e-05
4.84564e-05
7.65094e-05
0.000115907
0.000151204
0.000177254
0.000195177
0.000207043
0.000214648
0.000219367
0.000222193
0.000223812
0.000224673
0.000225041
0.000225041
0.000224671
0.00022381
0.000222189
0.000219362
0.000214642
0.000207035
0.000195166
0.00017724
0.000151181
0.000115874
7.65079e-05
4.84475e-05
3.61202e-05
2.87054e-05
2.93437e-05
3.6595e-05
4.97787e-05
7.86384e-05
0.000119208
0.000154476
0.000180178
0.000197661
0.000209095
0.000216319
0.000220722
0.0002233
0.000224739
0.000225482
0.000225793
0.000225792
0.00022548
0.000224736
0.000223296
0.000220716
0.000216312
0.000209087
0.000197651
0.000180164
0.000154455
0.000119177
7.86324e-05
4.97722e-05
3.65993e-05
2.93473e-05
2.96681e-05
3.68725e-05
5.04574e-05
7.97078e-05
0.000120836
0.000156077
0.000181595
0.00019885
0.000210062
0.000217089
0.00022133
0.000223783
0.000225131
0.000225815
0.000226097
0.000226096
0.000225813
0.000225127
0.000223778
0.000221324
0.000217082
0.000210054
0.000198841
0.000181583
0.000156058
0.000120808
7.96982e-05
5.04532e-05
3.68722e-05
2.9671e-05
2.96684e-05
3.68715e-05
5.04583e-05
7.97101e-05
0.000120833
0.000156073
0.000181592
0.000198849
0.000210062
0.00021709
0.000221332
0.000223785
0.000225133
0.000225817
0.000226098
0.000226098
0.000225814
0.000225129
0.00022378
0.000221325
0.000217083
0.000210054
0.000198839
0.00018158
0.000156055
0.000120807
7.96967e-05
5.04568e-05
3.68708e-05
2.96709e-05
2.93449e-05
3.66014e-05
4.97825e-05
7.86452e-05
0.000119201
0.000154466
0.00018017
0.000197658
0.000209096
0.000216323
0.000220728
0.000223306
0.000224745
0.000225487
0.000225797
0.000225796
0.000225484
0.00022474
0.0002233
0.00022072
0.000216315
0.000209087
0.000197648
0.000180158
0.000154448
0.000119174
7.86277e-05
4.97834e-05
3.65962e-05
2.93469e-05
2.87035e-05
3.61238e-05
4.84633e-05
7.65192e-05
0.000115895
0.000151188
0.000177245
0.000195175
0.000207048
0.000214658
0.000219379
0.000222205
0.000223822
0.000224681
0.000225048
0.000225047
0.000224677
0.000223816
0.000222196
0.000219369
0.000214647
0.000207037
0.000195163
0.00017723
0.000151169
0.000115866
7.64975e-05
4.84671e-05
3.61161e-05
2.87049e-05
2.77523e-05
3.54366e-05
4.65395e-05
7.32824e-05
0.00011083
0.00014611
0.000172639
0.000191185
0.000203666
0.000211817
0.000216988
0.00022017
0.000222051
0.000223083
0.000223535
0.000223534
0.000223078
0.000222043
0.000220159
0.000216975
0.000211802
0.000203651
0.000191169
0.000172621
0.000146087
0.000110798
7.32528e-05
4.65473e-05
3.54269e-05
2.77532e-05
2.65035e-05
3.45373e-05
4.39409e-05
6.89474e-05
0.000103949
0.000139049
0.000166072
0.000185331
0.000198532
0.000207329
0.000213051
0.000216678
0.000218896
0.000220153
0.000220718
0.000220716
0.000220147
0.000218885
0.000216664
0.000213033
0.00020731
0.000198511
0.000185309
0.000166048
0.00013902
0.000103916
6.8919e-05
4.39653e-05
3.45277e-05
2.65039e-05
2.4973e-05
3.34213e-05
4.08858e-05
6.36829e-05
9.5304e-05
0.000129769
0.000157126
0.000177076
0.000191004
0.000200473
0.000206789
0.000210919
0.000213531
0.000215059
0.000215761
0.000215759
0.000215051
0.000213518
0.000210902
0.000206768
0.000200449
0.000190979
0.000177049
0.000157095
0.000129733
9.52674e-05
6.36532e-05
4.09082e-05
3.34133e-05
2.49729e-05
2.318e-05
3.20576e-05
3.7562e-05
5.76902e-05
8.53617e-05
0.00011786
0.000145227
0.000165648
0.000180138
0.000190183
0.000197065
0.000201716
0.000204757
0.000206589
0.000207449
0.000207446