/*--------------------------------*- C++ -*----------------------------------*\
| =========                 |                                                 |
| \\      /  F ield         | OpenFOAM: The Open Source CFD Toolbox           |
|  \\    /   O peration     | Version:  2312                                  |
|   \\  /    A nd           | Website:  www.openfoam.com                      |
|    \\/     M anipulation  |                                                 |
\*---------------------------------------------------------------------------*/
FoamFile
{
    version     2.0;
    format      ascii;
    arch        "LSB;label=32;scalar=64";
    class       surfaceScalarField;
    location    "250";
    object      phi;
}
// * * * * * * * * * * * * * * * * * * * * * * * * * * * * * * * * * * * * * //

dimensions      [1 0 -1 0 0 0 0];

oriented        oriented;

internalField   nonuniform List<scalar> 
78300
(
1.44099e-05
0.000220941
0.00752404
0.00296722
0.00114051
0.00974474
0.00311119
0.00450383
0.0149896
0.00350543
0.00512479
0.0196059
0.00379519
0.00578582
0.0241946
0.0039442
0.00636191
0.0285334
0.00394411
0.00686835
0.0325524
0.00379716
0.0072831
0.0362387
0.00350653
0.007606
0.0395692
0.00309275
0.00785102
0.042493
0.00258087
0.00803472
0.044972
0.00199394
0.00816985
0.046981
0.00135256
0.00826468
0.0485028
0.000675733
0.0083247
0.0495245
-1.86551e-05
0.00835375
0.0500376
-0.000713294
0.00835375
0.0500378
-0.00139087
0.00832471
0.0495252
-0.00203349
0.0082647
0.048504
-0.00262223
0.00817
0.0469827
-0.0031363
0.00803484
0.0449741
-0.00355251
0.00785101
0.0424954
-0.00384558
0.00760584
0.0395718
-0.00399443
0.00728247
0.0362412
-0.00399512
0.00686673
0.0325547
-0.00384545
0.00635957
0.0285351
-0.00355098
0.0057802
0.0241955
-0.00314324
0.00511139
0.0196058
-0.00298484
0.00449037
0.0149886
-2.09962e-05
0.00113096
0.00974325
0.000216056
0.00752234
0.00309241
0.00445485
0.00969539
0.0053979
0.00388134
0.0178433
0.00655359
0.00697993
0.0248563
0.00693824
0.00785298
0.0306728
0.00707447
0.00846513
0.0359374
0.0070151
0.00897285
0.0408105
0.00678095
0.00940291
0.0452869
0.00637006
0.0097604
0.0493386
0.00578377
0.0100422
0.0529438
0.00503953
0.0102518
0.0560779
0.00416668
0.010401
0.0587173
0.00319643
0.0105036
0.0608452
0.00215716
0.0105706
0.0624504
0.00107359
0.0106107
0.063525
-3.16006e-05
0.0106292
0.0640637
-0.0011369
0.0106289
0.0640641
-0.00222077
0.0106099
0.063526
-0.00326057
0.0105694
0.0624522
-0.00423133
0.0105019
0.0608476
-0.00510474
0.0103988
0.0587202
-0.00584923
0.0102487
0.0560813
-0.00643484
0.0100378
0.0529474
-0.00684318
0.00975402
0.0493418
-0.00707191
0.00939357
0.0452892
-0.00712117
0.00895968
0.0408113
-0.00697118
0.00844738
0.0359358
-0.00657255
0.00782958
0.0306689
-0.00540194
0.00695677
0.024851
-0.00309055
0.00387116
0.0178381
0.00445352
0.00969368
0.00679309
0.00404434
0.019884
0.00945456
0.00590569
0.027241
0.0103202
0.00840632
0.0350352
0.0101754
0.00915136
0.041284
0.00970127
0.00955561
0.0466132
0.00911472
0.00987014
0.0513655
0.00844758
0.010152
0.0556708
0.00768817
0.0104067
0.0595491
0.00682361
0.0106238
0.0629886
0.00585297
0.0107945
0.0659711
0.00478775
0.0109188
0.06848
0.0036464
0.0110034
0.0705019
0.00244903
0.0110571
0.0720267
0.00121528
0.0110879
0.0730473
-3.6356e-05
0.0111014
0.073559
-0.00128795
0.0111008
0.0735594
-0.00252149
0.0110859
0.0730484
-0.00371849
0.0110538
0.0720284
-0.00485908
0.0109986
0.0705042
-0.00592299
0.0109125
0.0684827
-0.00689125
0.0107863
0.0659738
-0.0077517
0.0106131
0.0629908
-0.00850425
0.0103924
0.0595503
-0.00916123
0.0101333
0.0556699
-0.00973365
0.00984637
0.051362
-0.0101906
0.00952726
0.0466067
-0.010321
0.00912198
0.0412756
-0.00944772
0.00838286
0.0350278
-0.00678643
0.00590029
0.0272364
0.00405103
0.0198827
0.00693014
0.00458749
0.027899
0.010062
0.00679513
0.0368089
0.011014
0.0089479
0.0445442
0.0109089
0.00954147
0.0506811
0.0103575
0.00983376
0.0558607
0.00963112
0.0100383
0.0604344
0.00881769
0.0102221
0.0645512
0.0079334
0.0104011
0.0682506
0.00697586
0.0105668
0.0715291
0.00594294
0.0107071
0.0743719
0.00483905
0.0108154
0.0767638
0.00367473
0.010892
0.078692
0.00246384
0.0109416
0.0801468
0.00122185
0.01097
0.0811207
-3.56227e-05
0.0109823
0.0816091
-0.00129282
0.0109812
0.0816093
-0.00253425
0.0109667
0.0811215
-0.00374386
0.0109359
0.080148
-0.00490641
0.0108839
0.0786935
-0.00600734
0.0108047
0.0767653
-0.00703585
0.0106934
0.074373
-0.00798686
0.0105494
0.0715292
-0.00886222
0.0103793
0.0682491
-0.00966393
0.0101956
0.0645473
-0.0103768
0.0100075
0.0604279
-0.0109151
0.00980096
0.0558521
-0.0110097
0.00951065
0.0506721
-0.0100547
0.0089276
0.0445382
-0.00692394
0.00679283
0.0368069
0.00459981
0.0278996
0.00788691
0.0048354
0.0360838
0.0107968
0.00733296
0.0460344
0.011449
0.00911022
0.0536899
0.011213
0.00953433
0.059501
0.0105995
0.00972965
0.0644329
0.00981456
0.00985832
0.0688171
0.00893604
0.00997742
0.0727682
0.00799089
0.0101019
0.0763167
0.00698604
0.0102263
0.0794604
0.00592354
0.0103389
0.0821865
0.00480648
0.0104311
0.084481
0.0036415
0.0104996
0.0863314
0.00243856
0.0105456
0.0877278
0.00120952
0.0105725
0.0886629
-3.2579e-05
0.0105841
0.0891317
-0.00127442
0.0105825
0.0891319
-0.0025024
0.0105677
0.0886633
-0.00370367
0.0105376
0.0877284
-0.00486596
0.0104883
0.086332
-0.00597912
0.0104161
0.0844814
-0.00703623
0.01032
0.0821863
-0.00803378
0.010203
0.079459
-0.00896999
0.0100742
0.0763137
-0.00983818
0.00994539
0.0727633
-0.0106126
0.00982354
0.0688105
-0.0112168
0.00969486
0.0644257
-0.0114478
0.00950445
0.0594949
-0.0107946
0.00909127
0.0536876
-0.007887
0.0073313
0.046036
0.00484514
0.0360863
0.00857162
0.00488979
0.0440626
0.0113184
0.00747753
0.0548764
0.0117443
0.00896439
0.0623345
0.0113774
0.00926887
0.0678344
0.0106991
0.00938856
0.0725237
0.00987171
0.00945959
0.0767235
0.00895681
0.00953005
0.0805208
0.00797964
0.0096125
0.0839338
0.0069506
0.00970221
0.0869577
0.00587422
0.00978902
0.0895803
0.00475412
0.00986419
0.0917882
0.00359544
0.00992272
0.0935693
0.00240564
0.00996351
0.0949137
0.00119409
0.00998805
0.0958141
-2.84334e-05
0.00999852
0.0962655
-0.00125054
0.00999649
0.0962656
-0.00246094
0.00998197
0.0958142
-0.00364871
0.00995333
0.0949139
-0.00480434
0.0099083
0.0935693
-0.0059203
0.00984543
0.0917878
-0.00699117
0.00976572
0.0895793
-0.00801358
0.00967436
0.0869557
-0.00898304
0.00958033
0.0839305
-0.00989006
0.00949452
0.0805164
-0.0107102
0.00942255
0.0767185
-0.011383
0.00935284
0.0725192
-0.0117472
0.00923848
0.0678321
-0.0113212
0.00894399
0.0623358
-0.00857422
0.00747136
0.0548807
0.00489332
0.0440663
0.00907491
0.00477214
0.0517129
0.0116432
0.00730837
0.063178
0.0119165
0.00855318
0.0703978
0.0114645
0.00878116
0.0756323
0.0107405
0.00885106
0.0801116
0.00988334
0.00888293
0.0841426
0.00894538
0.00891819
0.087797
0.00794976
0.00896833
0.0910848
0.00690763
0.00902979
0.0939987
0.00582481
0.00909386
0.0965265
0.0047054
0.00915253
0.0986551
0.00355398
0.0092003
0.100373
0.00237664
0.00923481
0.101669
0.00118112
0.00925602
0.102538
-2.36472e-05
0.00926498
0.102974
-0.00122806
0.00926261
0.102973
-0.00242237
0.0092488
0.102538
-0.00359766
0.00922276
0.101669
-0.00474617
0.00918339
0.100372
-0.00586173
0.00913073
0.0986543
-0.00693981
0.00906721
0.0965251
-0.0079765
0.0089986
0.0939966
-0.00896639
0.00893326
0.091082
-0.00989892
0.00888049
0.0877937
-0.0107515
0.00884446
0.0841395
-0.0114726
0.00881434
0.0801097
-0.0119233
0.00874899
0.0756328
-0.0116496
0.00852887
0.0704013
-0.00907924
0.00729474
0.0631834
0.0047671
0.0517171
0.00943683
0.0045048
0.0588879
0.0118378
0.00688035
0.0708333
0.0119993
0.00791763
0.0778127
0.0114955
0.00809468
0.0828193
0.010745
0.00813598
0.0871193
0.009871
0.00814513
0.091001
0.00892021
0.00815831
0.0945255
0.00791471
0.00818611
0.0976987
0.0068663
0.00822614
0.100512
0.00578139
0.00827178
0.102953
0.00466451
0.00831599
0.10501
0.00352012
0.00835354
0.106669
0.00235356
0.00838152
0.107922
0.00117138
0.00839905
0.108762
-1.87175e-05
0.00840627
0.109183
-0.00120844
0.00840357
0.109183
-0.00238955
0.00839096
0.108762
-0.00355436
0.00836809
0.107922
-0.00469628
0.00833478
0.106669
-0.00581003
0.00829206
0.105009
-0.00689135
0.00824296
0.102952
-0.00793586
0.00819294
0.10051
-0.0089375
0.00814939
0.0976965
-0.00988493
0.00811945
0.0945233
-0.0107563
0.00810569
0.0909994
-0.0115054
0.00809791
0.0871191
-0.0120084
0.00805986
0.0828213
-0.0118462
0.00788823
0.077817
-0.00944211
0.00685843
0.0708384
0.00449049
0.0588919
0.00970448
0.00410352
0.065449
0.0119492
0.00624206
0.0777523
0.0120222
0.0070958
0.0845046
0.0114841
0.00723609
0.0893151
0.0107193
0.00726235
0.0934617
0.00983802
0.00726094
0.0972135
0.00888259
0.00726299
0.100623
0.00787439
0.00727729
0.103694
0.00682509
0.00730296
0.106418
0.00574174
0.00733495
0.108781
0.00462918
0.00736768
0.110773
0.00349189
0.00739653
0.11238
0.00233484
0.00741862
0.113595
0.00116398
0.00743258
0.114408
-1.39277e-05
0.00743811
0.114816
-0.00119155
0.00743521
0.114816
-0.0023616
0.00742395
0.114408
-0.00351729
0.0074043
0.113594
-0.00465279
0.00737672
0.11238
-0.00576317
0.0073426
0.110772
-0.00684412
0.00730507
0.10878
-0.00789096
0.0072689
0.106416
-0.00889698
0.00724009
0.103692
-0.00985052
0.00722371
0.100622
-0.0107305
0.007221
0.0972127
-0.0114945
0.00722298
0.0934622
-0.0120321
0.00719854
0.0893173
-0.0119581
0.00706132
0.0845087
-0.00970979
0.00621215
0.0777567
0.00408046
0.0654524
0.0099005
0.00358728
0.0712813
0.0120058
0.00543336
0.0838507
0.0120069
0.00612129
0.0903988
0.0114431
0.0062328
0.095043
0.0106701
0.00625175
0.0990593
0.00978707
0.00624772
0.1027
0.00883287
0.00624601
0.10601
0.00782719
0.00625396
0.108992
0.00678148
0.00627122
0.111638
0.00570282
0.00629428
0.113934
0.00459634
0.00631881
0.115869
0.00346663
0.00634101
0.117431
0.00231858
0.00635832
0.118612
0.00115775
0.00636931
0.119402
-9.5724e-06
0.00637339
0.119799
-0.00117672
0.00637041
0.119799
-0.00233699
0.00636042
0.119402
-0.0034842
0.00634369
0.118611
-0.00461278
0.00632084
0.11743
-0.00571798
0.00629348
0.115868
-0.00679534
0.00626436
0.113933
-0.00783987
0.0062374
0.111636
-0.00884449
0.00621712
0.108991
-0.00979796
0.00620718
0.106009
-0.0106804
0.00620781
0.102699
-0.011453
0.00621164
0.0990597
-0.0120164
0.00619312
0.0950446
-0.0120139
0.00608261
0.0904017
-0.00990525
0.00539652
0.0838542
0.00355668
0.0712841
0.0100418
0.00297461
0.0762897
0.0120269
0.00448878
0.0890539
0.0119694
0.00502426
0.0954261
0.0113848
0.00511135
0.0999327
0.0106066
0.00512675
0.103841
0.0097247
0.00512468
0.107387
0.00877473
0.00512403
0.110614
0.00777475
0.00513045
0.113522
0.00673539
0.00514392
0.116102
0.00566355
0.00516193
0.118341
0.00456449
0.00518122
0.120229
0.00344283
0.00519889
0.121753
0.00230352
0.00521275
0.122904
0.00115196
0.00522152
0.123676
-5.82747e-06
0.00522451
0.124063
-0.00116351
0.00522153
0.124063
-0.00231478
0.00521266
0.123676
-0.00345365
0.0051982
0.122904
-0.00457477
0.00517896
0.121752
-0.00567331
0.00515637
0.120228
-0.00674465
0.00513271
0.11834
-0.00778369
0.00511111
0.1161
-0.00878349
0.00509479
0.113521
-0.00973337
0.00508629
0.110613
-0.0106152
0.00508553
0.107386
-0.0113932
0.00508663
0.10384
-0.0119773
0.00507048
0.0999334
-0.0120336
0.00498267
0.0954278
-0.0100457
0.00444676
0.0890563
0.00293804
0.0762918
0.0101412
0.00228432
0.0803938
0.0120277
0.00343867
0.0932976
0.0119234
0.003832
0.0995256
0.0113218
0.00389739
0.103922
0.0105391
0.00391125
0.107743
0.00965919
0.00391306
0.111214
0.00871446
0.00391596
0.114374
0.0077213
0.00392381
0.117222
0.00668939
0.00393653
0.119749
0.00562529
0.00395229
0.121943
0.00453405
0.00396875
0.123792
0.00342046
0.00398365
0.125285
0.00228942
0.00399531
0.126413
0.00114639
0.00400258
0.12717
-2.78943e-06
0.00400488
0.127549
-0.00115192
0.00400196
0.127549
-0.00229483
0.00399392
0.127169
-0.00342571
0.00398112
0.126413
-0.00453914
0.0039643
0.125284
-0.00563027
0.00394474
0.123791
-0.00669444
0.00392428
0.121942
-0.00772649
0.00390516
0.119747
-0.00871994
0.0038898
0.11722
-0.00966498
0.00387986
0.114372
-0.0105451
0.00387527
0.111213
-0.0113279
0.00387192
0.107742
-0.0119292
0.00385642
0.103922
-0.0120326
0.00378894
0.0995262
-0.0101441
0.0033934
0.0932989
0.00224349
0.0803951
0.0102081
0.00153578
0.0835287
0.0120189
0.00231104
0.0965289
0.0118792
0.00256998
0.102646
0.0112643
0.00261565
0.10696
0.0104777
0.00262887
0.110715
0.00959938
0.00263513
0.11413
0.00865937
0.00264253
0.117239
0.00767257
0.0026532
0.120041
0.00664773
0.00266688
0.122529
0.00559087
0.0026822
0.124688
0.00450695
0.00269741
0.126509
0.00340064
0.00271089
0.127979
0.00227694
0.00272129
0.12909
0.00114127
0.00272772
0.129834
-4.86411e-07
0.0027296
0.130207
-0.00114223
0.00272676
0.130207
-0.00227784
0.00271928
0.129834
-0.00340148
0.00270752
0.129089
-0.00450776
0.0026922
0.127978
-0.00559175
0.00267436
0.126508
-0.00664878
0.00265542
0.124687
-0.00767395
0.00263708
0.122527
-0.00866118
0.00262098
0.12004
-0.00960168
0.00260834
0.117237
-0.0104805
0.00259918
0.114128
-0.0112673
0.0025911
0.110714
-0.0118824
0.00257563
0.106959
-0.0120218
0.002527
0.102646
-0.01021
0.00226443
0.0965292
0.00149238
0.0835294
0.0102489
0.000748823
0.0856456
0.012008
0.00113281
0.0987065
0.0118443
0.00126245
0.104749
0.0112198
0.00128973
0.109008
0.0104302
0.00130269
0.112719
0.00955282
0.00131336
0.116095
0.00861621
0.00132533
0.11917
0.00763421
0.00133928
0.121943
0.00661488
0.00135466
0.124403
0.00556377
0.00137044
0.12654
0.00448562
0.00138535
0.128341
0.00338505
0.0013982
0.129796
0.00226707
0.00140798
0.130895
0.00113712
0.00141393
0.131632
1.08127e-06
0.0014156
0.132001
-0.00113493
0.0014128
0.132001
-0.00226479
0.00140563
0.131631
-0.00338265
0.00139447
0.130895
-0.0044831
0.00137995
0.129795
-0.00556118
0.00136297
0.128341
-0.00661232
0.00134463
0.126539
-0.00763183
0.00132615
0.124402
-0.00861415
0.00130867
0.121941
-0.00955124
0.00129305
0.119169
-0.0104293
0.00127952
0.116094
-0.0112194
0.00126706
0.112717
-0.0118444
0.00125172
0.109006
-0.0120086
0.00122097
0.104748
-0.0102496
0.00108668
0.0987061
0.000704565
0.0856458
0.0102677
-5.65376e-05
0.086712
0.0119998
-6.98639e-05
0.0998024
0.0118234
-6.70901e-05
0.105808
0.0111935
-5.75198e-05
0.110038
0.010402
-4.4805e-05
0.113727
0.00952484
-2.99807e-05
0.117084
0.00858997
-1.36755e-05
0.120142
0.00761069
3.45619e-06
0.1229
0.00659456
2.06969e-05
0.125347
0.00554693
3.72075e-05
0.127473
0.00447232
5.21528e-05
0.129264
0.00337532
6.46944e-05
0.130711
0.00226087
7.40887e-05
0.131804
0.00113446
7.97451e-05
0.132537
1.96624e-06
8.12464e-05
0.132905
-0.00113046
7.84325e-05
0.132904
-0.0022567
7.14125e-05
0.132537
-0.00337085
6.05554e-05
0.131804
-0.00446748
4.64614e-05
0.130711
-0.00554169
2.99181e-05
0.129264
-0.00658898
1.17748e-05
0.127472
-0.00760489
-7.11501e-06
0.125346
-0.00858421
-2.60092e-05
0.122899
-0.0095194
-4.43317e-05
0.120141
-0.0103972
-6.17043e-05
0.117083
-0.0111895
-7.78871e-05
0.113726
-0.0118205
-9.27095e-05
0.110036
-0.0119981
-0.000105748
0.105806
-0.0102672
-0.000113807
0.0998015
-9.99743e-05
0.0867117
0.0102665
-0.000860739
0.086712
0.011997
-0.00127112
0.0998026
0.0118192
-0.00139526
0.105808
0.0111882
-0.00140362
0.110038
0.010396
-0.00139142
0.113727
0.00951839
-0.00137277
0.117084
0.00858353
-0.00135247
0.120142
0.00760458
-0.00133245
0.1229
0.00658907
-0.00131364
0.125347
0.00554223
-0.00129662
0.127472
0.00446855
-0.00128182
0.129264
0.00337253
-0.00126972
0.130711
0.0022591
-0.00126078
0.131804
0.00113372
-0.00125551
0.132537
2.26209e-06
-0.00125423
0.132905
-0.0011291
-0.00125712
0.132905
-0.0022542
-0.00126407
0.132537
-0.00336714
-0.0012747
0.131804
-0.00446249
-0.00128841
0.130711
-0.00553537
-0.00130454
0.129264
-0.00658138
-0.00132242
0.127472
-0.00759619
-0.00134152
0.125346
-0.00857473
-0.00136149
0.122899
-0.0095096
-0.00138203
0.120141
-0.0103877
-0.00140262
0.117083
-0.0111809
-0.00142182
0.113725
-0.0118133
-0.00143541
0.110036
-0.0119931
-0.00143002
0.105806
-0.0102649
-0.0013113
0.0998012
-0.000901713
0.0867112
0.0102454
-0.00164421
0.0856457
0.0119997
-0.0024451
0.0987069
0.0118318
-0.00269878
0.104749
0.0112041
-0.00272613
0.109007
0.0104124
-0.00271504
0.112718
0.00953398
-0.00269292
0.116094
0.00859742
-0.00266902
0.119169
0.00761645
-0.00264666
0.121942
0.00659891
-0.00262694
0.124403
0.00555017
-0.00261011
0.12654
0.00447473
-0.00259613
0.128341
0.00337708
-0.00258504
0.129796
0.00226209
-0.00257702
0.130895
0.00113514
-0.00257241
0.131632
2.12584e-06
-0.00257153
0.132001
-0.00113077
-0.00257455
0.132001
-0.00225739
-0.00258135
0.131632
-0.0033718
-0.00259157
0.130895
-0.00446858
-0.00260461
0.129796
-0.00554289
-0.00261992
0.128341
-0.00659039
-0.00263698
0.126539
-0.00760671
-0.00265569
0.124402
-0.00858677
-0.00267607
0.121941
-0.0095229
-0.00269819
0.119168
-0.0104016
-0.00272136
0.116093
-0.0111942
-0.00274292
0.112717
-0.0118235
-0.00275426
0.109005
-0.0119938
-0.00272887
0.104747
-0.0102427
-0.00248021
0.0987051
-0.00168114
0.0856444
0.0102022
-0.00238696
0.0835288
0.0120055
-0.00356574
0.0965295
0.0118592
-0.00395425
0.102646
0.0112392
-0.00400239
0.10696
0.0104494
-0.0039933
0.110715
0.00956957
-0.00396825
0.114129
0.0086298
-0.00394144
0.117237
0.00764472
-0.00391768
0.12004
0.00662281
-0.00389829
0.122527
0.00556977
-0.00388296
0.124687
0.00449022
-0.00387105
0.126508
0.00338857
-0.003862
0.127978
0.00226966
-0.00385571
0.129089
0.00113878
-0.00385228
0.129834
1.81852e-06
-0.00385206
0.130208
-0.00113508
-0.00385519
0.130208
-0.0022657
-0.00386162
0.129834
-0.00338412
-0.00387096
0.12909
-0.0044849
-0.00388265
0.127978
-0.00556328
-0.00389619
0.126508
-0.00661484
-0.00391139
0.124687
-0.00763521
-0.00392851
0.122527
-0.00861891
-0.0039482
0.12004
-0.00955779
-0.00397094
0.117237
-0.0104374
-0.00399598
0.114128
-0.0112278
-0.00401911
0.110713
-0.0118493
-0.00402697
0.106958
-0.011998
-0.00397932
0.102644
-0.0101987
-0.00359481
0.0965273
-0.00241851
0.083527
0.0101331
-0.0030691
0.0803938
0.0120096
-0.00460625
0.0932981
0.0118967
-0.00513767
0.0995253
0.0112889
-0.00520908
0.103921
0.0105022
-0.00520339
0.107742
0.00962071
-0.00517653
0.111212
0.00867652
-0.00514812
0.114372
0.00768581
-0.00512486
0.11722
0.00665786
-0.00510786
0.119747
0.00559881
-0.00509617
0.121941
0.00451337
-0.00508823
0.123791
0.00340598
-0.00508285
0.125284
0.00228128
-0.00507938
0.126413
0.00114457
-0.00507789
0.12717
1.646e-06
-0.00507861
0.127549
-0.00114128
-0.00508182
0.12755
-0.00227797
-0.00508747
0.12717
-0.0034025
-0.00509515
0.126414
-0.00450941
-0.00510436
0.125285
-0.00559394
-0.00511465
0.123791
-0.00665168
-0.0051262
0.121941
-0.00767805
-0.00513982
0.119747
-0.00866715
-0.00515693
0.11722
-0.00961003
-0.00517861
0.114372
-0.0104908
-0.00520422
0.111212
-0.0112776
-0.00522781
0.10774
-0.0118863
-0.00523062
0.103919
-0.0120015
-0.00515784
0.0995227
-0.0101291
-0.0046289
0.0932957
-0.00309438
0.0803915
0.0100316
-0.00367127
0.0762894
0.0120047
-0.00553883
0.0890539
0.0119374
-0.00622396
0.0954251
0.011346
-0.00632184
0.0999308
0.0105637
-0.00632204
0.103838
0.00968042
-0.00629561
0.107385
0.0087315
-0.00626853
0.110611
0.0077346
-0.00624889
0.113519
0.00670001
-0.00623762
0.116099
0.00563425
-0.0062327
0.118339
0.00454212
-0.00623141
0.120227
0.00342791
-0.00623172
0.121752
0.00229626
-0.00623257
0.122904
0.00115234
-0.00623384
0.123676
2.01933e-06
-0.00623589
0.124064
-0.00114845
-0.00623906
0.124064
-0.00229275
-0.00624336
0.123677
-0.0034248
-0.0062484
0.122905
-0.00453922
-0.00625355
0.121753
-0.00563118
-0.00625853
0.120228
-0.00669626
-0.00626385
0.11834
-0.00772965
-0.00627108
0.1161
-0.00872509
-0.00628252
0.113519
-0.00967257
-0.00630029
0.110611
-0.0105547
-0.00632389
0.107384
-0.0113364
-0.00634587
0.103837
-0.011928
-0.00634116
0.0999288
-0.0119968
-0.00623994
0.0954224
-0.0100276
-0.00555528
0.0890515
-0.00369002
0.0762869
0.00988845
-0.00417464
0.0712805
0.0119803
-0.00633339
0.08385
0.0119714
-0.00718634
0.0903967
0.011401
-0.00731556
0.0950401
0.0106243
-0.00732577
0.0990561
0.00974032
-0.00730457
0.102696
0.00878757
-0.00728366
0.106007
0.0077855
-0.0072727
0.108989
0.00674515
-0.00727194
0.111635
0.00567321
-0.00727786
0.113932
0.00457454
-0.00728658
0.115867
0.00345332
-0.00729501
0.11743
0.00231408
-0.00730176
0.118612
0.00116207
-0.0073067
0.119403
3.27695e-06
-0.00731039
0.1198
-0.00115582
-0.0073134
0.119801
-0.00230866
-0.00731577
0.119404
-0.00344908
-0.00731698
0.118612
-0.00457151
-0.00731629
0.117431
-0.00567109
-0.00731345
0.115868
-0.00674338
-0.00730925
0.113932
-0.00778353
-0.00730603
0.111635
-0.00878478
-0.00730737
0.108989
-0.00973632
-0.00731659
0.106007
-0.010619
-0.00733369
0.102696
-0.0113946
-0.00734972
0.0990552
-0.0119644
-0.00733375
0.0950383
-0.0119739
-0.00719928
0.0903942
-0.00988506
-0.00634466
0.0838478
-0.00418742
0.0712779
0.00969082
-0.00456077
0.0654475
0.0119218
-0.00695608
0.0777504
0.0119854
-0.00799534
0.0845012
0.0114415
-0.00816431
0.089311
0.0106737
-0.0081924
0.0934577
0.00979197
-0.00818431
0.0972096
0.00883838
-0.00817701
0.100619
0.00783395
-0.00818176
0.103691
0.00679022
-0.00819762
0.106415
0.00571405
-0.00821947
0.108779
0.00460989
-0.00824173
0.110771
0.00348196
-0.00826077
0.11238
0.00233481
-0.00827486
0.113595
0.00117394
-0.00828422
0.11441
5.68081e-06
-0.00828979
0.114818
-0.00116303
-0.0082925
0.114818
-0.00232524
-0.00829238
0.11441
-0.00347435
-0.00828878
0.113596
-0.00460454
-0.00828057
0.112381
-0.00571089
-0.00826722
0.110772
-0.00678892
-0.00824972
0.10878
-0.00783374
-0.00823119
0.106415
-0.00883853
-0.00821642
0.103691
-0.00979182
-0.00821036
0.100619
-0.0106726
-0.00821416
0.0972094
-0.0114392
-0.0082168
0.093457
-0.0119819
-0.00818225
0.0893096
-0.0119179
-0.0080067
0.0844992
-0.00968877
-0.00696376
0.0777487
-0.00456906
0.065445
0.0094222
-0.00481114
0.0588855
0.0118101
-0.0073679
0.0708301
0.0119637
-0.00861829
0.077808
0.0114555
-0.0088414
0.0828145
0.0107026
-0.00890074
0.0871147
0.00982857
-0.00891775
0.0909967
0.00887946
-0.00893458
0.0945215
0.00787762
-0.00896398
0.0976951
0.00683471
-0.00900363
0.100509
0.00575705
-0.00904642
0.102951
0.00464912
-0.00908576
0.105008
0.00351493
-0.00911731
0.106669
0.00235936
-0.00913971
0.107923
0.00118844
-0.00915383
0.108763
9.26462e-06
-0.00916136
0.109185
-0.00117053
-0.00916361
0.109185
-0.00234312
-0.00916079
0.108764
-0.00350129
-0.00915174
0.107924
-0.00463875
-0.00913473
0.10667
-0.00575017
-0.00910869
0.105009
-0.00683106
-0.00907431
0.102952
-0.00787677
-0.00903514
0.10051
-0.00888057
-0.00899724
0.0976956
-0.00983063
-0.00896733
0.0945219
-0.0107049
-0.00894747
0.0909968
-0.011457
-0.00892557
0.0871144
-0.011964
-0.00885967
0.0828135
-0.0118094
-0.00862926
0.0778065
-0.00942188
-0.00737389
0.0708289
-0.00481698
0.0588834
0.00906077
-0.00491152
0.0517098
0.011618
-0.00752157
0.0631735
0.0118852
-0.00901792
0.0703924
0.0114299
-0.00932091
0.0756274
0.010704
-0.00943207
0.0801073
0.00984635
-0.00948997
0.0841387
0.00890958
-0.00954389
0.0877933
0.00791702
-0.00960771
0.0910813
0.00688011
-0.00967827
0.0939957
0.0058047
-0.00974675
0.0965243
0.0046947
-0.00980559
0.0986539
0.00355432
-0.00985058
0.100372
0.00238919
-0.00988145
0.10167
0.00120623
-0.00990006
0.10254
1.37556e-05
-0.00990935
0.102976
-0.00117934
-0.00991114
0.102976
-0.00236415
-0.00990563
0.10254
-0.00353232
-0.00989115
0.101671
-0.00467651
-0.00986511
0.100373
-0.00579096
-0.00982511
0.0986549
-0.00687102
-0.00977107
0.0965253
-0.00791224
-0.00970647
0.0939967
-0.0089085
-0.00963817
0.0910822
-0.00984805
-0.00957458
0.087794
-0.0107073
-0.00951863
0.0841392
-0.0114337
-0.00945662
0.0801075
-0.0118885
-0.00933933
0.0756271
-0.0116199
-0.00902948
0.0703916
-0.00906199
-0.00752735
0.0631726
-0.00491696
0.0517082
0.0085598
-0.004842
0.0440593
0.0112988
-0.00736439
0.0548715
0.0117206
-0.00915462
0.0623295
0.0113506
-0.00957932
0.0678305
0.0106698
-0.00976743
0.0725205
0.00984085
-0.00988409
0.0767204
0.00892605
-0.00998818
0.0805176
0.00795133
-0.0100964
0.0839307
0.00692723
-0.0102045
0.0869549
0.00585847
-0.0103022
0.0895783
0.00474838
-0.0103815
0.0917872
0.00360172
-0.0104396
0.0935694
0.00242514
-0.0104778
0.0949148
0.00122753
-0.0105002
0.0958159
1.87523e-05
-0.0105108
0.0962677
-0.00119066
-0.0105121
0.0962678
-0.0023901
-0.0105043
0.0958162
-0.00356961
-0.0104852
0.0949153
-0.0047204
-0.0104508
0.0935702
-0.00583541
-0.0103971
0.0917882
-0.00690962
-0.0103223
0.0895795
-0.00793934
-0.0102283
0.0869562
-0.00891924
-0.010123
0.0839319
-0.00983856
-0.0100155
0.0805188
-0.0106709
-0.00991043
0.0767216
-0.011354
-0.00979057
0.0725214
-0.0117247
-0.0095975
0.0678309
-0.0113022
-0.00916646
0.062329
-0.00856215
-0.00737051
0.0548708
-0.00484915
0.0440587
0.00787963
-0.00458383
0.0360808
0.0107866
-0.00681972
0.0460305
0.0114354
-0.00898575
0.0536868
0.0111947
-0.00958009
0.0594992
0.0105771
-0.00986591
0.0644314
0.00978884
-0.0100587
0.0688151
0.00890931
-0.0102292
0.0727656
0.00796605
-0.0103946
0.0763138
0.00696629
-0.0105475
0.0794577
0.0059119
-0.0106766
0.0821846
0.00480558
-0.0107756
0.0844801
0.00365344
-0.0108449
0.0863315
0.00246475
-0.0108891
0.0877288
0.00125075
-0.0109144
0.0886645
2.35657e-05
-0.0109259
0.0891336
-0.00120403
-0.0109268
0.0891336
-0.00241964
-0.010917
0.0886646
-0.00361096
-0.0108941
0.0877291
-0.00476691
-0.0108528
0.086332
-0.00587809
-0.0107871
0.0844808
-0.00693828
-0.010692
0.0821857
-0.00794424
-0.0105664
0.0794591
-0.00889388
-0.0104162
0.0763153
-0.00977921
-0.0102524
0.0727672
-0.0105725
-0.0100817
0.0688167
-0.0111943
-0.00988639
0.064433
-0.0114374
-0.00959684
0.0595002
-0.0107891
-0.00899697
0.0536867
-0.00788267
-0.00682508
0.0460302
-0.00459406
0.0360809
0.00693176
-0.00404013
0.0278968
0.0100622
-0.00592698
0.036807
0.0110097
-0.00843954
0.0445442
0.0108974
-0.0091837
0.050682
0.0103386
-0.00958024
0.0558607
0.00960768
-0.00988448
0.0604328
0.00879271
-0.0101548
0.0645484
0.0079104
-0.0103991
0.0682474
0.0069586
-0.0106075
0.0715263
0.00593456
-0.0107709
0.0743699
0.00484225
-0.0108896
0.0767628
0.00369145
-0.0109698
0.078692
0.0024955
-0.0110203
0.0801476
0.00126919
-0.0110491
0.0811219
2.75877e-05
-0.0110621
0.0816103
-0.00121435
-0.0110625
0.0816102
-0.00244176
-0.0110504
0.0811217
-0.00363971
-0.011023
0.0801473
-0.00479356
-0.0109746
0.0786919
-0.00589018
-0.010897
0.076763
-0.00691969
-0.0107814
0.0743705
-0.00787784
-0.0106211
0.0715273
-0.00876681
-0.0104154
0.0682488
-0.00958842
-0.0101729
0.06455
-0.0103257
-0.00990277
0.0604345
-0.0108898
-0.00959708
0.0558623
-0.0110052
-0.00919832
0.0506831
-0.0100609
-0.00844768
0.0445442
-0.0069296
-0.00593343
0.0368073
-0.00404864
0.0278973
0.00679352
-0.00444979
0.0198827
0.00946157
-0.00390969
0.0272414
0.0103205
-0.00700808
0.0350368
0.0101633
-0.00787445
0.0412855
0.00968021
-0.00848029
0.0466127
0.00908835
-0.00897934
0.051363
0.0084202
-0.00940111
0.0556671
0.00766418
-0.00975237
0.0595454
0.00680656
-0.0100296
0.0629855
0.00584594
-0.0102361
0.065969
0.00479293
-0.010383
0.068479
0.00366542
-0.0104837
0.0705018
0.00248309
-0.0105492
0.0720272
0.00126507
-0.0105883
0.073048
2.96465e-05
-0.0106065
0.0735595
-0.00120603
-0.0106064
0.0735592
-0.00242442
-0.0105886
0.0730474
-0.00360782
-0.0105501
0.0720264
-0.0047373
-0.0104857
0.0705011
-0.00579348
-0.0103868
0.0684785
-0.00675853
-0.0102422
0.065969
-0.00762187
-0.010038
0.0629859
-0.00838437
-0.00976303
0.0595462
-0.00905937
-0.00941324
0.055668
-0.00965782
-0.00899183
0.0513638
-0.0101463
-0.00849237
0.0466133
-0.0103076
-0.00788505
0.0412857
-0.00945123
-0.00701357
0.0350367
-0.00679179
-0.00390812
0.027242
-0.00445715
0.0198833
0.00311207
-0.000236007
0.00969584
0.00539783
-0.00115122
0.0178454
0.00654488
-0.00452458
0.0248575
0.00691792
-0.00513443
0.0306726
0.00704167
-0.00578655
0.0359355
0.0069789
-0.00636175
0.0408073
0.00674651
-0.00686455
0.0452832
0.00634113
-0.00727697
0.049335
0.00576348
-0.00759907
0.0529408
0.00502995
-0.00784391
0.0560758
0.00416903
-0.00802741
0.0587161
0.00321169
-0.00816232
0.0608447
0.00218617
-0.00825685
0.0624502
0.00111709
-0.00831655
0.0635247
2.68088e-05
-0.00834538
0.0640631
-0.00106327
-0.00834536
0.0640629
-0.00213217
-0.00831649
0.0635241
-0.00315772
-0.00825694
0.0624494
-0.00411562
-0.00816302
0.0608439
-0.00497823
-0.00802893
0.0587155
-0.00571479
-0.00784668
0.0560755
-0.00629668
-0.00760333
0.052941
-0.00670774
-0.00728243
0.0493355
-0.00694664
-0.00687061
0.0452836
-0.00701694
-0.00636697
0.0408075
-0.00689673
-0.00579532
0.0359357
-0.00653251
-0.00513648
0.0306729
-0.00538992
-0.00452589
0.0248578
-0.00310462
-0.00114989
0.0178461
-0.00023643
0.00969637
-8.79271e-07
0.00752426
0.00294123
0.00974473
0.00306504
0.014989
0.00345095
0.0196046
0.00374199
0.0241926
0.00389358
0.028531
0.0038998
0.0325499
0.00376159
0.0362361
0.00348056
0.0395665
0.00307647
0.0424904
0.00257427
0.0449696
0.0019971
0.0469788
0.00136585
0.0485004
0.000699735
0.0495219
1.66493e-05
0.0500346
-0.000666182
0.0500344
-0.00133158
0.0495212
-0.00196191
0.0484994
-0.00253855
0.0469776
-0.00304093
0.0449683
-0.00344651
0.0424891
-0.00373087
0.0395656
-0.00387412
0.0362356
-0.00387401
0.03255
-0.00372808
0.0285314
-0.00344646
0.0241933
-0.00306332
0.0196053
-0.00294138
0.0149895
1.68804e-06
0.00974509
0.00752465
0.000725829
0.000429506
0.0063687
0.000959374
0.000974739
0.00853645
0.000658144
0.00191512
0.0133757
0.000520932
0.00221133
0.0175318
0.000455687
0.00264956
0.0216103
0.000476401
0.00307179
0.0254409
0.000536974
0.00350341
0.0289885
0.000600171
0.00392673
0.0322487
0.00063871
0.00432659
0.035204
0.000636754
0.00468951
0.0378054
0.00058932
0.00500496
0.0400144
0.000498172
0.00526618
0.041806
0.000370013
0.00546728
0.0431636
0.000215193
0.00560365
0.0440756
4.62698e-05
0.00567254
0.044534
-0.000122922
0.00567254
0.0445345
-0.00027848
0.00560361
0.0440771
-0.000407512
0.00546698
0.043166
-0.000499373
0.00526546
0.0418091
-0.000547012
0.00500368
0.040018
-0.000548244
0.00468745
0.0378092
-0.000508196
0.00432408
0.0352076
-0.000443257
0.00392442
0.0322518
-0.000382512
0.00350313
0.0289908
-0.000364937
0.00307521
0.0254423
-0.000434424
0.00265424
0.0216108
-0.000587556
0.00222763
0.0175313
-0.000924085
0.00195069
0.0133744
-0.000697903
0.000982098
0.00853497
0.000457187