/*--------------------------------*- C++ -*----------------------------------*\
| =========                 |                                                 |
| \\      /  F ield         | OpenFOAM: The Open Source CFD Toolbox           |
|  \\    /   O peration     | Version:  2312                                  |
|   \\  /    A nd           | Website:  www.openfoam.com                      |
|    \\/     M anipulation  |                                                 |
\*---------------------------------------------------------------------------*/
FoamFile
{
    version     2.0;
    format      ascii;
    arch        "LSB;label=32;scalar=64";
    class       volScalarField;
    location    "250";
    object      T;
}
// * * * * * * * * * * * * * * * * * * * * * * * * * * * * * * * * * * * * * //

dimensions      [0 0 0 1 0 0 0];

internalField   nonuniform List<scalar> 
27000
(
426.561
356.022
347.365
343.158
342.413
342.468
342.665
342.892
343.122
343.324
343.492
343.625
343.725
343.791
343.824
343.824
343.791
343.725
343.625
343.491
343.324
343.122
342.893
342.668
342.474
342.424
343.177
347.397
356.069
426.657
335.728
354.602
348.572
346.918
346.573
346.709
346.903
347.067
347.2
347.306
347.389
347.452
347.498
347.527
347.542
347.541
347.526
347.497
347.451
347.388
347.306
347.202
347.072
346.912
346.724
346.596
346.949
348.61
354.642
335.727
342.247
345.563
348.167
347.96
347.798
347.793
347.848
347.901
347.942
347.973
347.997
348.015
348.028
348.037
348.041
348.041
348.036
348.028
348.015
347.998
347.976
347.947
347.909
347.86
347.811
347.821
347.986
348.191
345.576
342.246
342.189
346.038
347.648
347.976
347.995
347.995
348.015
348.04
348.06
348.075
348.085
348.093
348.098
348.101
348.103
348.103
348.101
348.098
348.093
348.087
348.078
348.066
348.049
348.027
348.011
348.012
347.992
347.659
346.041
342.186
342.602
346.545
347.745
347.983
348.037
348.048
348.058
348.07
348.081
348.089
348.095
348.099
348.101
348.102
348.103
348.103
348.102
348.102
348.1
348.098
348.094
348.087
348.078
348.068
348.059
348.047
347.991
347.748
346.543
342.597
343.019
346.891
347.849
348.022
348.061
348.07
348.074
348.079
348.083
348.088
348.09
348.092
348.093
348.093
348.093
348.093
348.093
348.094
348.093
348.093
348.091
348.089
348.085
348.081
348.077
348.067
348.025
347.848
346.885
343.012
343.413
347.132
347.918
348.053
348.08
348.083
348.082
348.082
348.082
348.083
348.084
348.084
348.084
348.084
348.084
348.084
348.084
348.085
348.085
348.086
348.086
348.086
348.086
348.086
348.086
348.081
348.051
347.913
347.125
343.406
343.756
347.312
347.965
348.073
348.092
348.091
348.087
348.083
348.081
348.079
348.079
348.078
348.077
348.077
348.077
348.077
348.077
348.078
348.079
348.08
348.081
348.083
348.085
348.088
348.091
348.09
348.068
347.958
347.303
343.75
344.051
347.448
348.002
348.087
348.099
348.095
348.089
348.083
348.079
348.077
348.075
348.074
348.073
348.073
348.073
348.073
348.073
348.074
348.075
348.076
348.078
348.08
348.084
348.088
348.093
348.095
348.081
347.994
347.44
344.045
344.295
347.553
348.03
348.097
348.103
348.097
348.089
348.083
348.078
348.075
348.073
348.072
348.071
348.071
348.07
348.07
348.071
348.071
348.072
348.073
348.075
348.078
348.082
348.088
348.094
348.099
348.091
348.023
347.546
344.29
344.49
347.633
348.053
348.106
348.107
348.098
348.089
348.082
348.077
348.074
348.072
348.071
348.07
348.07
348.07
348.07
348.07
348.07
348.071
348.072
348.074
348.077
348.081
348.087
348.095
348.102
348.1
348.046
347.626
344.485
344.637
347.691
348.07
348.112
348.109
348.099
348.089
348.082
348.077
348.074
348.072
348.071
348.07
348.07
348.07
348.07
348.07
348.07
348.071
348.072
348.073
348.076
348.08
348.087
348.096
348.105
348.108
348.064
347.686
344.634
344.743
347.732
348.082
348.117
348.111
348.099
348.089
348.082
348.077
348.073
348.072
348.071
348.071
348.071
348.071
348.071
348.071
348.071
348.071
348.072
348.073
348.076
348.081
348.088
348.097
348.108
348.114
348.078
347.728
344.741
344.812
347.757
348.089
348.12
348.112
348.1
348.089
348.082
348.077
348.074
348.072
348.071
348.071
348.071
348.071
348.071
348.071
348.071
348.072
348.072
348.074
348.076
348.081
348.089
348.099
348.111
348.119
348.087
347.755
344.81
344.846
347.77
348.093
348.122
348.114
348.101
348.09
348.082
348.077
348.074
348.073
348.072
348.072
348.072
348.072
348.072
348.072
348.072
348.072
348.073
348.074
348.077
348.082
348.09
348.101
348.114
348.122
348.093
347.77
344.845
344.846
347.771
348.094
348.123
348.114
348.101
348.09
348.083
348.078
348.075
348.073
348.073
348.072
348.073
348.073
348.073
348.073
348.073
348.073
348.074
348.076
348.079
348.084
348.092
348.103
348.116
348.125
348.096
347.772
344.846
344.813
347.76
348.092
348.123
348.115
348.102
348.091
348.084
348.078
348.075
348.074
348.073
348.073
348.073
348.073
348.073
348.073
348.074
348.074
348.075
348.077
348.08
348.086
348.094
348.105
348.118
348.126
348.095
347.762
344.814
344.745
347.735
348.086
348.121
348.115
348.103
348.093
348.085
348.08
348.076
348.075
348.074
348.074
348.074
348.074
348.074
348.074
348.074
348.075
348.076
348.078
348.081
348.087
348.096
348.107
348.12
348.126
348.091
347.74
344.747
344.64
347.697
348.075
348.118
348.115
348.104
348.094
348.086
348.081
348.078
348.076
348.075
348.075
348.074
348.075
348.075
348.075
348.075
348.075
348.077
348.079
348.083
348.089
348.097
348.108
348.12
348.124
348.082
347.702
344.643
344.493
347.64
348.06
348.113
348.114
348.105
348.095
348.088
348.082
348.079
348.077
348.076
348.076
348.076
348.076
348.076
348.076
348.076
348.077
348.078
348.08
348.083
348.089
348.098
348.109
348.119
348.12
348.068
347.647
344.497
344.3
347.562
348.04
348.106
348.111
348.104
348.096
348.089
348.084
348.081
348.079
348.078
348.078
348.078
348.078
348.078
348.078
348.078
348.078
348.079
348.081
348.084
348.089
348.098
348.108
348.116
348.113
348.048
347.57
344.304
344.057
347.459
348.012
348.096
348.107
348.102
348.095
348.089
348.085
348.083
348.082
348.082
348.082
348.082
348.082
348.082
348.082
348.081
348.081
348.081
348.082
348.084
348.088
348.095
348.104
348.111
348.102
348.02
347.467
344.061
343.764
347.323
347.977
348.083
348.1
348.098
348.093
348.089
348.087
348.086
348.086
348.087
348.087
348.088
348.088
348.088
348.088
348.087
348.086
348.085
348.084
348.084
348.085
348.09
348.097
348.101
348.086
347.983
347.331
343.769
343.422
347.145
347.929
348.062
348.087
348.089
348.087
348.087
348.088
348.09
348.093
348.094
348.096
348.097
348.097
348.097
348.096
348.095
348.093
348.09
348.087
348.083
348.081
348.081
348.084
348.084
348.062
347.933
347.152
343.427
343.028
346.903
347.86
348.03
348.066
348.073
348.077
348.083
348.089
348.096
348.1
348.104
348.106
348.108
348.109
348.109
348.108
348.106
348.103
348.098
348.091
348.083
348.075
348.068
348.064
348.059
348.025
347.86
346.908
343.033
342.612
346.556
347.753
347.987
348.037
348.048
348.059
348.073
348.087
348.099
348.107
348.113
348.117
348.119
348.121
348.121
348.12
348.117
348.112
348.105
348.094
348.08
348.064
348.047
348.035
348.024
347.977
347.748
346.558
342.616
342.2
346.047
347.65
347.973
347.99
347.992
348.015
348.043
348.068
348.086
348.099
348.109
348.116
348.12
348.123
348.123
348.121
348.117
348.109
348.098
348.083
348.061
348.033
348.001
347.975
347.971
347.956
347.638
346.046
342.205
342.261
345.568
348.158
347.947
347.787
347.788
347.848
347.907
347.952
347.987
348.013
348.033
348.048
348.058
348.063
348.064
348.059
348.05
348.035
348.014
347.986
347.948
347.898
347.835
347.769
347.763
347.92
348.134
345.559
342.264
335.745
354.578
348.543
346.895
346.56
346.705
346.906
347.075
347.212
347.32
347.405
347.47
347.517
347.548
347.563
347.564
347.549
347.519
347.473
347.408
347.322
347.211
347.071
346.898
346.69
346.538
346.865
348.506
354.548
335.751
426.497
355.984
347.341
343.146
342.409
342.471
342.671
342.9
343.132
343.335
343.503
343.637
343.737
343.804
343.837
343.837
343.804
343.738
343.638
343.504
343.337
343.133
342.899
342.668
342.465
342.4
343.13
347.314
355.945
426.42
447.618
363.295
347.555
339.116
336.611
336.086
336.106
336.284
336.519
336.751
336.951
337.109
337.226
337.304
337.343
337.343
337.305
337.228
337.111
336.953
336.754
336.522
336.285
336.103
336.076
336.589
339.074
347.487
363.2
447.46
332.465
361.316
352.25
346.911
344.108
343.32
343.385
343.685
344.004
344.282
344.504
344.673
344.793
344.87
344.908
344.909
344.872
344.796
344.676
344.508
344.285
344.005
343.682
343.374
343.296
344.066
346.852
352.183
361.261
332.496
337.153
343.789
349.475
348.851
347.57
346.888
346.727
346.796
346.924
347.046
347.145
347.22
347.272
347.306
347.322
347.323
347.307
347.275
347.223
347.148
347.047
346.922
346.788
346.711
346.861
347.533
348.811
349.444
343.784
337.164
336.16
341.99
346.473
348.018
348.075
347.859
347.738
347.725
347.765
347.815
347.86
347.895
347.92
347.936
347.944
347.944
347.937
347.922
347.897
347.861
347.814
347.761
347.717
347.724
347.84
348.053
348.001
346.467
341.997
336.172
336.564
342.452
346.122
347.559
347.983
348.039
348.017
348.008
348.021
348.044
348.068
348.088
348.102
348.111
348.116
348.116
348.112
348.103
348.088
348.068
348.043
348.017
348.001
348.008
348.029
347.974
347.556
346.128
342.465
336.577
336.941
343.276
346.454
347.557
347.941
348.063
348.092
348.1
348.109
348.122
348.135
348.148
348.157
348.163
348.166
348.167
348.164
348.157
348.148
348.135
348.12
348.106
348.095
348.087
348.059
347.941
347.562
346.466
343.292
336.953
337.343
343.939
346.79
347.671
347.969
348.078
348.118
348.132
348.141
348.149
348.157
348.164
348.17
348.174
348.176
348.176
348.174
348.17
348.164
348.156
348.147
348.139
348.131
348.117
348.079
347.973
347.68
346.803
343.955
337.356
337.753
344.442
347.034
347.776
348.013
348.1
348.134
348.147
348.153
348.157
348.161
348.165
348.168
348.17
348.171
348.171
348.17
348.168
348.164
348.161
348.156
348.152
348.147
348.135
348.103
348.019
347.786
347.048
344.457
337.764
338.122
344.827
347.207
347.852
348.05
348.12
348.146
348.155
348.157
348.158
348.158
348.159
348.16
348.161
348.161
348.161
348.161
348.16
348.159
348.158
348.158
348.158
348.156
348.149
348.124
348.056
347.861
347.219
344.84
338.131
338.436
345.119
347.329
347.905
348.077
348.136
348.155
348.16
348.159
348.156
348.153
348.152
348.151
348.15
348.15
348.15
348.15
348.151
348.152
348.153
348.156
348.159
348.161
348.158
348.14
348.083
347.913
347.339
345.13
338.443
338.698
345.339
347.416
347.941
348.095
348.146
348.161
348.162
348.158
348.153
348.148
348.145
348.143
348.141
348.14
348.14
348.141
348.142
348.145
348.148
348.153
348.159
348.163
348.163
348.149
348.1
347.947
347.423
345.348
338.704
338.908
345.503
347.477
347.966
348.107
348.152
348.164
348.162
348.157
348.15
348.144
348.139
348.136
348.134
348.133
348.133
348.133
348.136
348.139
348.144
348.15
348.157
348.163
348.165
348.154
348.11
347.97
347.482
345.509
338.912
339.065
345.62
347.519
347.982
348.114
348.155
348.165
348.162
348.155
348.147
348.14
348.134
348.13
348.128
348.127
348.127
348.128
348.13
348.134
348.139
348.146
348.154
348.162
348.165
348.156
348.115
347.983
347.522
345.623
339.068
339.169
345.695
347.545
347.991
348.118
348.157
348.165
348.161
348.153
348.145
348.137
348.131
348.127
348.124
348.123
348.123
348.124
348.127
348.131
348.136
348.144
348.152
348.16
348.164
348.156
348.117
347.991
347.546
345.696
339.171
339.221
345.732
347.558
347.995
348.119
348.157
348.164
348.16
348.152
348.143
348.135
348.129
348.125
348.122
348.121
348.121
348.122
348.124
348.129
348.135
348.142
348.15
348.158
348.162
348.155
348.117
347.993
347.556
345.731
339.221
339.22
345.731
347.557
347.995
348.119
348.156
348.163
348.159
348.151
348.142
348.135
348.129
348.124
348.122
348.12
348.12
348.121
348.124
348.128
348.134
348.141
348.149
348.157
348.161
348.153
348.115
347.991
347.553
345.728
339.219
339.168
345.694
347.544
347.989
348.116
348.154
348.163
348.159
348.151
348.143
348.135
348.13
348.125
348.123
348.121
348.121
348.123
348.125
348.129
348.134
348.141
348.149
348.156
348.159
348.15
348.111
347.984
347.538
345.689
339.166
339.063
345.618
347.516
347.978
348.111
348.152
348.161
348.158
348.152
348.144
348.137
348.132
348.128
348.126
348.124
348.124
348.125
348.128
348.131
348.136
348.143
348.15
348.156
348.158
348.147
348.105
347.972
347.509
345.611
339.06
338.905
345.499
347.473
347.961
348.102
348.147
348.159
348.158
348.152
348.146
348.14
348.135
348.132
348.13
348.129
348.129
348.13
348.132
348.135
348.139
348.145
348.151
348.156
348.156
348.142
348.096
347.953
347.464
345.492
338.9
338.694
345.334
347.409
347.934
348.088
348.139
348.154
348.156
348.152
348.147
348.143
348.14
348.138
348.136
348.136
348.136
348.137
348.138
348.14
348.143
348.147
348.152
348.155
348.152
348.135
348.082
347.926
347.4
345.325
338.689
338.431
345.111
347.32
347.895
348.068
348.127
348.147
348.152
348.151
348.149
348.147
348.146
348.145
348.144
348.144
348.145
348.145
348.145
348.146
348.148
348.15
348.152
348.152
348.146
348.125
348.063
347.889
347.311
345.102
338.424
338.115
344.816
347.195
347.84
348.039
348.11
348.137
348.146
348.149
348.15
348.15
348.151
348.152
348.153
348.154
348.154
348.154
348.153
348.153
348.152
348.152
348.151
348.148
348.138
348.11
348.036
347.835
347.187
344.808
338.108
337.744
344.429
347.019
347.762
348
348.088
348.123
348.137
348.143
348.147
348.152
348.155
348.159
348.161
348.162
348.163
348.162
348.16
348.158
348.155
348.151
348.148
348.142
348.127
348.091
348
347.76
347.014
344.422
337.737
337.331
343.923
346.773
347.656
347.955
348.066
348.107
348.122
348.13
348.138
348.146
348.154
348.159
348.164
348.166
348.166
348.164
348.161
348.156
348.15
348.143
348.136
348.129
348.114
348.073
347.96
347.657
346.771
343.917
337.325
336.927
343.258
346.436
347.541
347.927
348.05
348.08
348.088
348.097
348.109
348.123
348.135
348.144
348.151
348.154
348.154
348.151
348.146
348.138
348.127
348.115
348.105
348.098
348.092
348.062
347.937
347.548
346.438
343.255
336.923
336.55
342.434
346.105
347.543
347.97
348.028
348.006
347.996
348.008
348.03
348.054
348.073
348.087
348.096
348.101
348.101
348.097
348.088
348.075
348.057
348.037
348.017
348.008
348.021
348.044
347.987
347.557
346.112
342.434
336.548
336.146
341.973
346.458
348.007
348.065
347.849
347.726
347.711
347.749
347.799
347.844
347.878
347.903
347.918
347.925
347.925
347.918
347.902
347.879
347.846
347.804
347.758
347.725
347.744
347.871
348.089
348.029
346.473
341.978
336.144
337.134
343.774
349.468
348.848
347.566
346.879
346.713
346.778
346.905
347.027
347.126
347.201
347.253
347.286
347.301
347.301
347.285
347.251
347.2
347.127
347.03
346.912
346.79
346.73
346.903
347.595
348.88
349.495
343.787
337.135
332.445
361.317
352.257
346.918
344.107
343.31
343.369
343.666
343.983
344.261
344.484
344.653
344.773
344.849
344.886
344.886
344.848
344.77
344.651
344.483
344.262
343.987
343.673
343.381
343.328
344.133
346.952
352.296
361.349
332.437
447.639
363.313
347.571
339.122
336.606
336.074
336.09
336.267
336.502
336.733
336.934
337.093
337.21
337.288
337.326
337.326
337.287
337.208
337.091
336.932
336.732
336.502
336.27
336.096
336.083
336.619
339.14
347.599
363.352
447.713
446.248
362.645
346.992
337.872
334.598
333.532
333.232
333.195
333.257
333.342
333.427
333.501
333.561
333.602
333.623
333.623
333.602
333.56
333.5
333.425
333.34
333.253
333.19
333.227
333.528
334.598
337.877
347
362.651
446.222
332.037
360.64
352.775
346.984
343.017
341.177
340.599
340.599
340.817
341.087
341.341
341.554
341.715
341.824
341.878
341.878
341.823
341.714
341.552
341.338
341.082
340.81
340.592
340.591
341.171
343.012
346.979
352.766
360.617
331.991
336.069
343.469
349.852
349.453
347.485
345.947
345.241
345.089
345.19
345.366
345.54
345.685
345.793
345.865
345.9
345.9
345.864
345.792
345.683
345.536
345.361
345.182
345.079
345.229
345.935
347.472
349.435
349.827
343.439
336.047
333.92
340.275
345.597
348.094
348.325
347.837
347.429
347.249
347.225
347.271
347.336
347.397
347.445
347.478
347.494
347.494
347.477
347.444
347.395
347.331
347.264
347.215
347.237
347.415
347.821
348.306
348.072
345.572
340.254
333.91
333.855
339.781
344.262
346.964
348.014
348.189
348.106
348.016
347.976
347.976
347.994
348.017
348.037
348.052
348.059
348.059
348.051
348.035
348.014
347.989
347.969
347.967
348.004
348.092
348.173
347.997
346.947
344.246
339.769
333.851
334.011
340.258
344.39
346.767
347.811
348.18
348.268
348.268
348.254
348.25
348.254
348.262
348.271
348.278
348.281
348.281
348.277
348.269
348.259
348.249
348.243
348.246
348.258
348.258
348.169
347.8
346.757
344.382
340.253
334.01
334.184
340.877
344.925
346.951
347.808
348.166
348.304
348.349
348.36
348.364
348.367
348.371
348.375
348.378
348.38
348.38
348.377
348.373
348.368
348.363
348.359
348.354
348.342
348.297
348.16
347.803
346.948
344.923
340.876
334.185
334.378
341.459
345.431
347.182
347.882
348.185
348.32
348.379
348.404
348.414
348.419
348.423
348.425
348.427
348.428
348.428
348.426
348.424
348.42
348.416
348.411
348.4
348.376
348.317
348.184
347.883
347.184
345.435
341.462
334.381
334.583
341.971
345.823
347.375
347.967
348.219
348.337
348.396
348.424
348.438
348.444
348.448
348.45
348.451
348.451
348.451
348.45
348.449
348.446
348.443
348.436
348.423
348.395
348.338
348.221
347.971
347.381
345.83
341.977
334.588
334.781
342.408
346.12
347.522
348.038
348.253
348.356
348.408
348.436
348.449
348.456
348.46
348.461
348.462
348.463
348.463
348.462
348.461
348.459
348.456
348.449
348.436
348.41
348.359
348.258
348.045
347.532
346.13
342.416
334.788
334.958
342.765
346.344
347.632
348.093
348.283
348.373
348.419
348.444
348.456
348.462
348.465
348.467
348.467
348.467
348.467
348.467
348.467
348.466
348.463
348.457
348.446
348.423
348.378
348.289
348.102
347.643
346.355
342.774
334.965
335.106
343.042
346.508
347.713
348.135
348.306
348.387
348.428
348.45
348.461
348.466
348.468
348.469
348.469
348.469
348.469
348.469
348.469
348.469
348.467
348.463
348.453
348.433
348.393
348.314
348.144
347.724
346.519
343.051
335.113
335.221
343.242
346.624
347.77
348.165
348.324
348.399
348.436
348.454
348.464
348.468
348.469
348.47
348.47
348.47
348.47
348.47
348.47
348.47
348.469
348.466
348.458
348.44
348.404
348.332
348.174
347.78
346.635
343.251
335.228
335.299
343.372
346.697
347.806
348.185
348.337
348.407
348.441
348.458
348.466
348.469
348.47
348.47
348.47
348.47
348.47
348.47
348.471
348.471
348.471
348.468
348.461
348.445
348.412
348.343
348.193
347.816
346.707
343.381
335.306
335.341
343.435
346.733
347.825
348.195
348.343
348.411
348.444
348.46
348.467
348.47
348.471
348.471
348.47
348.47
348.47
348.47
348.471
348.471
348.471
348.469
348.462
348.447
348.415
348.349
348.202
347.832
346.742
343.443
335.346
335.341
343.435
346.734
347.826
348.197
348.344
348.412
348.445
348.461
348.468
348.471
348.471
348.471
348.471
348.47
348.47
348.471
348.471
348.472
348.471
348.469
348.462
348.447
348.415
348.348
348.202
347.832
346.741
343.443
335.346
335.3
343.373
346.7
347.809
348.188
348.34
348.41
348.444
348.46
348.468
348.471
348.472
348.471
348.471
348.471
348.471
348.471
348.471
348.472
348.471
348.468
348.461
348.445
348.411
348.342
348.192
347.814
346.706
343.38
335.305
335.222
343.244
346.627
347.775
348.17
348.33
348.403
348.44
348.458
348.467
348.47
348.472
348.472
348.472
348.471
348.471
348.471
348.471
348.471
348.47
348.466
348.458
348.44
348.404
348.331
348.172
347.778
346.632
343.25
335.227
335.108
343.045
346.513
347.72
348.142
348.313
348.393
348.434
348.454
348.464
348.469
348.471
348.471
348.471
348.471
348.471
348.471
348.471
348.47
348.468
348.464
348.454
348.433
348.393
348.313
348.142
347.721
346.516
343.049
335.112
334.961
342.769
346.35
347.641
348.102
348.29
348.38
348.425
348.449
348.46
348.466
348.469
348.47
348.47
348.47
348.47
348.469
348.469
348.468
348.465
348.459
348.448
348.424
348.379
348.29
348.101
347.641
346.351
342.772
334.965
334.785
342.414
346.128
347.532
348.047
348.261
348.363
348.414
348.44
348.454
348.46
348.463
348.465
348.465
348.465
348.465
348.465
348.464
348.462
348.459
348.452
348.439
348.413
348.362
348.26
348.045
347.53
346.127
342.415
334.788
334.589
341.979
345.831
347.384
347.976
348.226
348.343
348.4
348.428
348.441
348.447
348.451
348.453
348.454
348.454
348.454
348.453
348.452
348.449
348.446
348.44
348.427
348.4
348.343
348.225
347.974
347.382
345.828
341.978
334.589
334.385
341.468
345.44
347.191
347.89
348.191
348.324
348.382
348.406
348.417
348.422
348.425
348.428
348.43
348.431
348.43
348.429
348.426
348.424
348.42
348.415
348.406
348.382
348.325
348.191
347.889
347.188
345.435
341.464
334.384
334.192
340.886
344.933
346.958
347.813
348.17
348.306
348.35
348.362
348.365
348.369
348.373
348.377
348.381
348.382
348.382
348.379
348.375
348.371
348.367
348.364
348.361
348.351
348.308
348.171
347.814
346.956
344.928
340.881
334.19
334.018
340.265
344.397
346.773
347.815
348.181
348.268
348.267
348.254
348.25
348.255
348.264
348.273
348.279
348.282
348.282
348.277
348.27
348.261
348.252
348.249
348.254
348.269
348.271
348.185
347.817
346.772
344.393
340.26
334.015
333.859
339.784
344.266
346.969
348.016
348.188
348.104
348.014
347.975
347.976
347.995
348.018
348.038
348.052
348.058
348.058
348.05
348.034
348.014
347.991
347.973
347.974
348.015
348.108
348.194
348.021
346.97
344.263
339.779
333.855
333.918
340.275
345.601
348.099
348.327
347.836
347.428
347.248
347.224
347.271
347.336
347.396
347.444
347.475
347.491
347.49
347.473
347.44
347.391
347.33
347.265
347.22
347.248
347.432
347.845
348.337
348.105
345.6
340.271
333.915
336.065
343.472
349.86
349.46
347.488
345.948
345.241
345.091
345.192
345.367
345.539
345.683
345.79
345.86
345.894
345.893
345.857
345.785
345.676
345.532
345.359
345.184
345.086
345.243
345.956
347.502
349.473
349.866
343.468
336.06
332.028
360.648
352.784
346.985
343.016
341.179
340.603
340.604
340.821
341.09
341.342
341.553
341.713
341.82
341.873
341.873
341.819
341.71
341.548
341.336
341.082
340.813
340.597
340.6
341.183
343.03
347.006
352.803
360.656
332.012
446.243
362.637
346.979
337.861
334.596
333.535
333.237
333.201
333.262
333.346
333.428
333.501
333.56
333.6
333.62
333.62
333.599
333.558
333.498
333.424
333.34
333.255
333.193
333.231
333.532
334.6
337.878
347.007
362.673
446.282
441.438
360.783
345.882
336.91
333.397
332.028
331.504
331.325
331.295
331.318
331.355
331.392
331.424
331.447
331.459
331.46
331.449
331.427
331.396
331.359
331.324
331.303
331.335
331.516
332.043
333.414
336.931
345.91
360.817
441.509
331.122
358.567
351.474
345.959
341.841
339.602
338.63
338.342
338.372
338.523
338.702
338.865
338.995
339.084
339.13
339.13
339.086
338.998
338.869
338.708
338.531
338.382
338.354
338.645
339.621
341.863
345.983
351.499
358.591
331.118
335.254
342.481
348.739
348.502
346.472
344.563
343.407
342.916
342.829
342.935
343.106
343.276
343.416
343.512
343.561
343.561
343.514
343.419
343.281
343.113
342.943
342.839
342.929
343.423
344.58
346.49
348.519
348.751
342.485
335.25
332.627
339.05
344.42
347.155
347.541
346.917
346.248
345.866
345.747
345.777
345.867
345.966
346.05
346.108
346.138
346.139
346.11
346.054
345.972
345.874
345.785
345.756
345.877
346.26
346.929
347.551
347.16
344.42
339.046
332.62
332.195
338.027
342.587
345.673
347.172
347.525
347.417
347.255
347.166
347.148
347.171
347.209
347.245
347.273
347.287
347.288
347.275
347.249
347.214
347.177
347.154
347.173
347.262
347.422
347.528
347.172
345.669
342.58
338.019
332.187
332.158
338.12
342.26
345.161
346.854
347.556
347.748
347.761
347.739
347.729
347.735
347.75
347.766
347.779
347.786
347.787
347.781
347.769
347.754
347.74
347.734
347.743
347.763
347.749
347.553
346.848
345.153
342.25
338.11
332.151
332.219
338.523
342.579
345.304
346.85
347.555
347.842
347.945
347.976
347.987
347.996
348.005
348.014
348.021
348.025
348.026
348.023
348.016
348.008
347.999
347.99
347.978
347.945
347.84
347.55
346.841
345.294
342.568
338.514
332.212
332.315
338.965
343.066
345.659
346.991
347.607
347.894
348.025
348.084
348.111
348.126
348.137
348.145
348.15
348.153
348.154
348.151
348.146
348.139
348.128
348.112
348.084
348.024
347.891
347.601
346.983
345.648
343.056
338.956
332.308
332.427
339.378
343.542
345.998
347.153
347.683
347.942
348.073
348.141
348.177
348.198
348.211
348.22
348.225
348.228
348.228
348.226
348.221
348.213
348.2
348.179
348.141
348.072
347.939
347.678
347.146
345.99
343.533
339.37
332.421
332.542
339.745
343.95
346.268
347.292
347.756
347.986
348.109
348.177
348.217
348.241
348.256
348.265
348.27
348.273
348.273
348.271
348.266
348.257
348.242
348.218
348.178
348.108
347.985
347.754
347.288
346.262
343.943
339.738
332.536
332.648
340.057
344.28
346.473
347.402
347.817
348.023
348.137
348.203
348.243
348.268
348.283
348.293
348.299
348.301
348.302
348.299
348.294
348.285
348.269
348.245
348.204
348.138
348.024
347.816
347.4
346.469
344.275
340.052
332.644
332.74
340.31
344.533
346.623
347.484
347.863
348.053
348.159
348.222
348.261
348.285
348.301
348.31
348.316
348.319
348.319
348.317
348.312
348.302
348.287
348.263
348.224
348.161
348.055
347.865
347.484
346.622
344.529
340.306
332.736
332.811
340.501
344.714
346.728
347.541
347.897
348.074
348.174
348.234
348.272
348.296
348.311
348.321
348.327
348.33
348.33
348.328
348.323
348.313
348.298
348.275
348.237
348.177
348.078
347.9
347.543
346.728
344.712
340.498
332.808
332.86
340.629
344.829
346.793
347.576
347.917
348.088
348.184
348.242
348.278
348.302
348.317
348.327
348.333
348.336
348.336
348.334
348.329
348.32
348.305
348.282
348.246
348.188
348.092
347.922
347.58
346.795
344.829
340.627
332.858
332.884
340.693
344.883
346.822
347.591
347.925
348.092
348.187
348.244
348.28
348.304
348.319
348.329
348.335
348.338
348.338
348.336
348.331
348.322
348.307
348.285
348.249
348.192
348.098
347.931
347.597
346.826
344.885
340.692
332.882
332.882
340.69
344.88
346.817
347.587
347.922
348.089
348.184
348.242
348.279
348.302
348.318
348.327
348.333
348.336
348.337
348.335
348.329
348.32
348.306
348.283
348.247
348.19
348.096
347.929
347.594
346.824
344.883
340.691
332.882
332.854
340.621
344.818
346.78
347.564
347.907
348.079
348.176
348.235
348.273
348.297
348.313
348.323
348.329
348.332
348.332
348.33
348.325
348.316
348.301
348.278
348.241
348.183
348.086
347.915
347.572
346.788
344.823
340.623
332.855
332.801
340.488
344.696
346.708
347.522
347.88
348.06
348.163
348.225
348.264
348.288
348.304
348.314
348.32
348.323
348.323
348.321
348.316
348.307
348.292
348.268
348.23
348.169
348.068
347.889
347.531
346.716
344.702
340.491
332.804
332.726
340.291
344.508
346.596
347.458
347.842
348.035
348.144
348.21
348.25
348.275
348.291
348.301
348.307
348.309
348.31
348.308
348.303
348.294
348.279
348.254
348.214
348.15
348.042
347.85
347.468
346.605
344.515
340.296
332.729
332.631
340.033
344.25
346.44
347.373
347.793
348.004
348.122
348.191
348.232
348.257
348.272
348.281
348.286
348.289
348.289
348.287
348.283
348.274
348.259
348.235
348.194
348.126
348.01
347.8
347.381
346.449
344.257
340.038
332.635
332.52
339.715
343.915
346.233
347.262
347.733
347.968
348.095
348.166
348.207
348.23
348.243
348.251
348.255
348.258
348.258
348.256
348.252
348.245
348.231
348.208
348.168
348.097
347.971
347.737
347.268
346.24
343.922
339.721
332.525
332.402
339.345
343.504
345.963
347.125
347.664
347.929
348.064
348.133
348.169
348.187
348.198
348.204
348.207
348.209
348.21
348.208
348.205
348.199
348.188
348.169
348.132
348.063
347.928
347.664
347.127
345.968
343.51
339.35
332.407
332.288
338.931
343.03
345.629
346.972
347.597
347.891
348.024
348.081
348.105
348.116
348.122
348.127
348.13
348.132
348.132
348.131
348.128
348.124
348.116
348.104
348.078
348.019
347.885
347.591
346.968
345.628
343.033
338.935
332.292
332.192
338.492
342.551
345.287
346.845
347.56
347.852
347.954
347.981
347.985
347.986
347.989
347.994
347.998
348
348.001
347.999
347.996
347.991
347.987
347.983
347.975
347.945
347.841
347.547
346.833
345.279
342.548
338.493
332.195
332.135
338.098
342.246
345.162
346.87
347.582
347.776
347.783
347.751
347.73
347.726
347.733
347.743
347.752
347.757
347.758
347.754
347.746
347.736
347.727
347.728
347.745
347.771
347.759
347.562
346.85
345.146
342.235
338.093
332.135
332.18
338.019
342.592
345.697
347.215
347.576
347.463
347.289
347.184
347.15
347.161
347.189
347.22
347.243
347.256
347.257
347.246
347.224
347.194
347.164
347.15
347.178
347.277
347.445
347.551
347.188
345.672
342.573
338.007
332.175
332.627
339.059
344.45
347.212
347.617
346.993
346.31
345.906
345.765
345.778
345.855
345.945
346.023
346.079
346.108
346.109
346.083
346.029
345.952
345.861
345.781
345.763
345.897
346.293
346.968
347.586
347.18
344.422
339.039
332.615
335.26
342.508
348.81
348.601
346.576
344.65
343.468
342.949
342.84
342.931
343.092
343.256
343.392
343.487
343.536
343.538
343.491
343.398
343.264
343.099
342.936
342.842
342.946
343.456
344.63
346.547
348.566
348.775
342.481
335.243
331.09
358.672
351.607
346.094
341.952
339.678
338.672
338.359
338.372
338.513
338.685
338.845
338.973
339.062
339.108
339.109
339.066
338.979
338.852
338.693
338.521
338.378
338.361
338.668
339.665
341.929
346.061
351.567
358.63
331.08
441.78
360.996
346.056
337.034
333.472
332.067
331.518
331.325
331.287
331.304
331.338
331.374
331.405
331.427
331.44
331.441
331.43
331.41
331.38
331.345
331.312
331.294
331.331
331.521
332.064
333.462
337.012
346.021
360.945
441.675
438.16
359.237
344.909
336.231
332.764
331.317
330.689
330.424
330.328
330.301
330.301
330.312
330.324
330.334
330.339
330.338
330.331
330.319
330.305
330.293
330.292
330.318
330.415
330.683
331.317
332.776
336.259
344.954
359.298
438.303
330.906
357.153
350.288
344.986
340.963
338.66
337.536
337.084
336.974
337.02
337.121
337.228
337.318
337.381
337.413
337.412
337.377
337.312
337.219
337.111
337.01
336.965
337.077
337.535
338.668
340.983
345.017
350.328
357.208
330.952
334.946
341.859
347.768
347.489
345.479
343.49
342.151
341.451
341.187
341.163
341.246
341.361
341.466
341.541
341.58
341.578
341.537
341.458
341.351
341.236
341.153
341.179
341.449
342.157
343.506
345.505
347.524
347.809
341.9
334.98
332.075
338.412
343.591
346.223