/*--------------------------------*- C++ -*----------------------------------*\
| =========                 |                                                 |
| \\      /  F ield         | OpenFOAM: The Open Source CFD Toolbox           |
|  \\    /   O peration     | Version:  2312                                  |
|   \\  /    A nd           | Website:  www.openfoam.com                      |
|    \\/     M anipulation  |                                                 |
\*---------------------------------------------------------------------------*/
FoamFile
{
    version     2.0;
    format      ascii;
    arch        "LSB;label=32;scalar=64";
    class       volVectorField;
    location    "250";
    object      U;
}
// * * * * * * * * * * * * * * * * * * * * * * * * * * * * * * * * * * * * * //

dimensions      [0 1 -1 0 0 0 0];

internalField   nonuniform List<vector> 
27000
(
(-4.61563e-05 9.30526e-05 0.107705)
(-0.000187476 0.000206015 0.0764913)
(-8.57033e-05 0.00021514 0.0818569)
(-5.25521e-05 0.00019386 0.0834326)
(-1.8904e-05 0.000189263 0.0852794)
(-1.13763e-07 0.000191069 0.0867212)
(1.25953e-05 0.000194926 0.0877964)
(2.0733e-05 0.00019885 0.088657)
(2.50027e-05 0.000202573 0.0893768)
(2.58265e-05 0.000205989 0.089953)
(2.39922e-05 0.000209063 0.0904041)
(2.02462e-05 0.000211673 0.0907506)
(1.51716e-05 0.000213696 0.0910029)
(9.21718e-06 0.000215055 0.0911668)
(2.77234e-06 0.000215731 0.0912472)
(-3.84871e-06 0.000215722 0.0912463)
(-1.03168e-05 0.000215018 0.0911644)
(-1.63076e-05 0.000213634 0.0909989)
(-2.14501e-05 0.000211576 0.0907452)
(-2.52851e-05 0.000208918 0.0903972)
(-2.72416e-05 0.000205776 0.0899451)
(-2.65527e-05 0.000202285 0.0893683)
(-2.24676e-05 0.000198462 0.0886486)
(-1.44918e-05 0.000194398 0.0877886)
(-1.96579e-06 0.000190453 0.0867149)
(1.66325e-05 0.000188317 0.0852758)
(4.98581e-05 0.000192429 0.0834332)
(8.36752e-05 0.00021356 0.0818629)
(0.000184727 0.00020406 0.0765035)
(4.4457e-05 9.16069e-05 0.107727)
(0.000287398 -0.00012724 0.062763)
(0.000129056 -5.8146e-05 0.0838743)
(0.000106684 0.000139493 0.091882)
(7.51197e-05 0.000193646 0.094578)
(7.11773e-05 0.000220583 0.0958465)
(7.33983e-05 0.000239547 0.0966975)
(7.40796e-05 0.000255297 0.0973035)
(7.26767e-05 0.000268548 0.0977519)
(6.87829e-05 0.000279296 0.0980953)
(6.23373e-05 0.000287795 0.098358)
(5.36153e-05 0.000294385 0.0985557)
(4.31257e-05 0.000299363 0.0987019)
(3.13753e-05 0.000302928 0.0988055)
(1.88017e-05 0.000305217 0.0988716)
(5.74233e-06 0.000306324 0.0989032)
(-7.47138e-06 0.000306286 0.0989018)
(-2.05455e-05 0.000305116 0.0988676)
(-3.3159e-05 0.000302749 0.0987992)
(-4.49539e-05 0.000299117 0.0986938)
(-5.55196e-05 0.00029405 0.0985464)
(-6.4321e-05 0.000287364 0.0983483)
(-7.08705e-05 0.000278742 0.0980865)
(-7.48489e-05 0.000267849 0.0977454)
(-7.63429e-05 0.00025442 0.0973008)
(-7.56241e-05 0.000238452 0.0967004)
(-7.3311e-05 0.000219323 0.0958567)
(-7.71554e-05 0.000191982 0.0945958)
(-0.000108416 0.000138 0.0919047)
(-0.000129308 -5.86607e-05 0.0838944)
(-0.000287501 -0.000127103 0.062768)
(8.90317e-05 0.000147366 0.0806734)
(0.000121915 0.00015869 0.0901517)
(0.000165401 0.000205155 0.0970603)
(0.000157521 0.000233791 0.0986916)
(0.000141893 0.000254175 0.0991552)
(0.000129058 0.000270045 0.0993738)
(0.000117509 0.000283534 0.0995268)
(0.000106285 0.000295042 0.099643)
(9.47503e-05 0.000304593 0.099733)
(8.23695e-05 0.000312186 0.0998028)
(6.89259e-05 0.000317992 0.0998559)
(5.44675e-05 0.000322263 0.0998952)
(3.92088e-05 0.00032523 0.0999231)
(2.33705e-05 0.000327093 0.0999406)
(7.19988e-06 0.000327965 0.0999486)
(-9.09316e-06 0.000327927 0.0999474)
(-2.52765e-05 0.000326961 0.0999371)
(-4.1126e-05 0.000325023 0.0999176)
(-5.64214e-05 0.000321954 0.0998886)
(-7.08946e-05 0.000317597 0.0998489)
(-8.4377e-05 0.000311677 0.0997968)
(-9.67671e-05 0.000303958 0.0997295)
(-0.000108285 0.00029425 0.0996436)
(-0.000119429 0.000282563 0.0995331)
(-0.000130831 0.000268907 0.099387)
(-0.000143381 0.000252852 0.0991758)
(-0.000158625 0.000232501 0.0987178)
(-0.000166069 0.000204044 0.0970865)
(-0.000121782 0.000158548 0.0901679)
(-8.87447e-05 0.000147399 0.0806762)
(0.000130563 7.40224e-05 0.0839915)
(0.000147126 0.000148484 0.0941177)
(0.000181895 0.000214454 0.0984151)
(0.000178816 0.000235351 0.0994947)
(0.000167097 0.000249579 0.0997922)
(0.000152188 0.00026143 0.0998932)
(0.000136751 0.000272049 0.0999452)
(0.000121482 0.00028168 0.0999817)
(0.000106367 0.000290071 0.10001)
(9.10811e-05 0.000297018 0.100032)
(7.53656e-05 0.000302446 0.100049)
(5.91245e-05 0.000306468 0.100061)
(4.23771e-05 0.00030926 0.10007)
(2.52401e-05 0.000310986 0.100075)
(7.84726e-06 0.000311795 0.100077)
(-9.62318e-06 0.000311743 0.100076)
(-2.70147e-05 0.000310845 0.100073)
(-4.41625e-05 0.000309009 0.100066)
(-6.09002e-05 0.000306123 0.100057)
(-7.71469e-05 0.000301989 0.100045)
(-9.28361e-05 0.000296436 0.10003)
(-0.000108073 0.000289361 0.100011)
(-0.000123107 0.000280804 0.0999876)
(-0.000138232 0.000271016 0.0999565)
(-0.00015346 0.000260241 0.0999101)
(-0.000168108 0.000248343 0.0998135)
(-0.000179534 0.000234144 0.0995175)
(-0.000182178 0.000213694 0.0984342)
(-0.000146867 0.000148455 0.0941258)
(-0.000130034 7.46726e-05 0.0839878)
(0.00013118 0.000101292 0.0864936)
(0.000168581 0.000159169 0.0960492)
(0.000200159 0.000210176 0.099087)
(0.000194182 0.000227779 0.0997613)
(0.000181686 0.00023871 0.0999592)
(0.000165952 0.000247593 0.100024)
(0.000148882 0.000255733 0.100047)
(0.000131601 0.000263374 0.100058)
(0.000114424 0.000270325 0.100064)
(9.72794e-05 0.000276291 0.100069)
(8e-05 0.000281113 0.100072)
(6.24746e-05 0.000284758 0.100075)
(4.46637e-05 0.000287317 0.100076)
(2.65985e-05 0.000288911 0.100077)
(8.36754e-06 0.000289648 0.100076)
(-9.92891e-06 0.000289595 0.100076)
(-2.81597e-05 0.000288745 0.100075)
(-4.62118e-05 0.000287043 0.100074)
(-6.40122e-05 0.000284369 0.100072)
(-8.15069e-05 0.000280599 0.100071)
(-9.87383e-05 0.000275657 0.10007)
(-0.000115811 0.000269539 0.100069)
(-0.000132876 0.000262451 0.100066)
(-0.000150022 0.00025466 0.10006)
(-0.000166918 0.000246428 0.100039)
(-0.000182457 0.000237518 0.099976)
(-0.000194734 0.000226752 0.0997763)
(-0.000200477 0.000209504 0.0990959)
(-0.000168497 0.000159178 0.096048)
(-0.000131047 0.000101699 0.0864848)
(0.000140927 0.000100014 0.0883)
(0.000187273 0.000162816 0.0971621)
(0.000215758 0.000202821 0.0994405)
(0.000207429 0.000215478 0.0998986)
(0.000193331 0.000223539 0.100025)
(0.000176363 0.000230146 0.100063)
(0.000158098 0.000236361 0.100073)
(0.000139491 0.00024238 0.100072)
(0.000120926 0.000248021 0.100068)
(0.000102444 0.000253019 0.100065)
(8.39603e-05 0.00025717 0.100062)
(6.53889e-05 0.000260396 0.100059)
(4.66771e-05 0.000262698 0.100057)
(2.78153e-05 0.00026415 0.100056)
(8.84407e-06 0.000264822 0.100055)
(-1.01607e-05 0.00026476 0.100054)
(-2.91234e-05 0.000263971 0.100055)
(-4.79726e-05 0.000262396 0.100056)
(-6.66596e-05 0.000259968 0.100059)
(-8.5192e-05 0.000256618 0.100063)
(-0.000103622 0.000252326 0.100068)
(-0.000122028 0.000247194 0.100074)
(-0.0001405 0.000241415 0.10008)
(-0.000158997 0.000235285 0.100083)
(-0.000177147 0.000229005 0.100075)
(-0.000193997 0.000222423 0.100035)
(-0.000207973 0.000214506 0.099905)
(-0.000216157 0.000202177 0.0994399)
(-0.000187399 0.000162697 0.0971532)
(-0.000140981 0.000100227 0.0882882)
(0.000150047 9.66566e-05 0.0896581)
(0.000204063 0.000156723 0.0978627)
(0.000229279 0.000189651 0.0996448)
(0.000219045 0.000199486 0.0999763)
(0.000203386 0.000205494 0.100057)
(0.000185209 0.000210431 0.100076)
(0.000165889 0.000215181 0.100075)
(0.000146243 0.000219903 0.100068)
(0.000126611 0.000224448 0.100059)
(0.00010707 0.000228569 0.100052)
(8.75951e-05 0.000232081 0.100045)
(6.81192e-05 0.000234865 0.100041)
(4.85864e-05 0.000236894 0.100037)
(2.89813e-05 0.000238185 0.100035)
(9.31351e-06 0.000238785 0.100033)
(-1.03757e-05 0.000238722 0.100033)
(-3.00356e-05 0.000237991 0.100034)
(-4.96255e-05 0.00023657 0.100037)
(-6.91309e-05 0.00023441 0.100041)
(-8.85724e-05 0.000231489 0.100047)
(-0.000108 0.000227845 0.100055)
(-0.00012748 0.000223589 0.100064)
(-0.000147048 0.000218928 0.100074)
(-0.000166626 0.000214113 0.100082)
(-0.000185882 0.000209324 0.100082)
(-0.000204003 0.000204415 0.100061)
(-0.000219614 0.000198534 0.0999751)
(-0.00022977 0.000188935 0.099637)
(-0.000204381 0.000156374 0.0978489)
(-0.000150285 9.65698e-05 0.0896449)
(0.000158348 9.04665e-05 0.0906922)
(0.000218325 0.000145689 0.098335)
(0.000240627 0.000172661 0.0997742)
(0.000228923 0.000180619 0.100023)
(0.000211989 0.000185313 0.100074)
(0.000192788 0.000189118 0.100079)
(0.000172594 0.00019279 0.10007)
(0.000152101 0.000196501 0.100059)
(0.000131612 0.000200127 0.100048)
(0.00011122 0.000203484 0.100038)
(9.09128e-05 0.000206396 0.100031)
(7.06495e-05 0.000208748 0.100025)
(5.03845e-05 0.000210486 0.100021)
(3.00864e-05 0.000211609 0.100018)
(9.76028e-06 0.000212126 0.100017)
(-1.0578e-05 0.000212059 0.100017)
(-3.0898e-05 0.000211405 0.100019)
(-5.11809e-05 0.000210148 0.100021)
(-7.14281e-05 0.000208272 0.100026)
(-9.16626e-05 0.000205785 0.100033)
(-0.000111937 0.00020274 0.100041)
(-0.000132295 0.000199262 0.100051)
(-0.000152748 0.000195529 0.100063)
(-0.000173208 0.000191748 0.100074)
(-0.000193382 0.00018804 0.10008)
(-0.000212568 0.000184261 0.100072)
(-0.000229494 0.000179642 0.100016)
(-0.000241171 0.000171845 0.0997619)
(-0.000218755 0.000145112 0.0983189)
(-0.000158709 9.01162e-05 0.0906796)
(0.000166141 8.20034e-05 0.0915)
(0.000230393 0.000131071 0.09867)
(0.000250059 0.00015311 0.0998633)
(0.000237096 0.000159642 0.100053)
(0.000219116 0.000163456 0.100082)
(0.000199097 0.000166476 0.100077)
(0.000178204 0.000169373 0.100063)
(0.000157051 0.000172301 0.100049)
(0.000135892 0.000175189 0.100037)
(0.000114817 0.000177894 0.100027)
(9.38339e-05 0.000180272 0.10002)
(7.29085e-05 0.000182221 0.100014)
(5.20028e-05 0.000183679 0.100011)
(3.10926e-05 0.000184625 0.100008)
(1.01667e-05 0.000185062 0.100007)
(-1.07617e-05 0.000184992 0.100007)
(-3.16827e-05 0.000184418 0.100008)
(-5.25856e-05 0.000183333 0.100011)
(-7.3477e-05 0.000181738 0.100015)
(-9.43902e-05 0.000179657 0.100021)
(-0.000115357 0.000177153 0.100029)
(-0.000136417 0.000174334 0.100039)
(-0.000157568 0.000171355 0.100051)
(-0.000178718 0.00016836 0.100064)
(-0.000199613 0.000165433 0.100075)
(-0.000219647 0.000162415 0.100077)
(-0.000237637 0.000158645 0.100043)
(-0.000250598 0.000152193 0.0998491)
(-0.00023086 0.0001303 0.0986536)
(-0.000166548 8.14186e-05 0.0914886)
(0.000173008 7.17098e-05 0.0921319)
(0.00024044 0.00011388 0.0989153)
(0.000257775 0.000131682 0.0999283)
(0.00024371 0.000137057 0.100074)
(0.000224841 0.000140211 0.100087)
(0.000204144 0.000142671 0.100074)
(0.000182719 0.000145004 0.100057)
(0.000161063 0.000147338 0.100041)
(0.000139397 0.000149642 0.100029)
(0.000117803 0.000151808 0.100019)
(9.62859e-05 0.000153731 0.100012)
(7.48258e-05 0.000155318 0.100007)
(5.33908e-05 0.000156518 0.100004)
(3.19582e-05 0.000157299 0.100002)
(1.05206e-05 0.000157655 0.100001)
(-1.09218e-05 0.000157586 0.100001)
(-3.23572e-05 0.000157091 0.100002)
(-5.37866e-05 0.000156173 0.100005)
(-7.52196e-05 0.000154842 0.100008)
(-9.66748e-05 0.000153126 0.100013)
(-0.000118192 0.000151087 0.10002)
(-0.000139791 0.000148817 0.100029)
(-0.000161465 0.00014643 0.100041)
(-0.000183137 0.000144032 0.100055)
(-0.000204583 0.000141662 0.10007)
(-0.0002253 0.000139187 0.10008)
(-0.000244193 0.000136038 0.100063)
(-0.000258267 0.000130691 0.0999143)
(-0.000240882 0.00011295 0.0989001)
(-0.000173411 7.09391e-05 0.0921221)
(0.00017878 6.00634e-05 0.0926148)
(0.000248566 9.48736e-05 0.099095)
(0.000263921 0.000108912 0.0999765)
(0.00024889 0.000113256 0.100089)
(0.000229274 0.000115847 0.10009)
(0.000208041 0.000117882 0.100072)
(0.000186199 0.000119781 0.100052)
(0.000164172 0.000121659 0.100035)
(0.000142137 0.000123496 0.100023)
(0.000120157 0.000125225 0.100014)
(9.82413e-05 0.000126761 0.100008)
(7.63685e-05 0.000128039 0.100004)
(5.4516e-05 0.000129005 0.100001)
(3.2665e-05 0.000129638 0.0999994)
(1.08089e-05 0.000129921 0.0999987)
(-1.1049e-05 0.000129853 0.0999988)
(-3.2906e-05 0.000129435 0.0999996)
(-5.47578e-05 0.000128671 0.100001)
(-7.66129e-05 0.000127577 0.100004)
(-9.84928e-05 0.000126182 0.100008)
(-0.000120418 0.000124536 0.100014)
(-0.000142412 0.000122715 0.100023)
(-0.000164468 0.000120798 0.100034)
(-0.000186519 0.000118862 0.100049)
(-0.000208386 0.000116917 0.100067)
(-0.000229649 0.000114851 0.100083)
(-0.000249285 0.000112234 0.100079)
(-0.000264331 0.000107873 0.0999642)
(-0.000248953 9.383e-05 0.099082)
(-0.000179139 5.91528e-05 0.0926067)
(0.000183406 4.73883e-05 0.0929729)
(0.000254892 7.45798e-05 0.0992238)
(0.000268637 8.51966e-05 0.100012)
(0.000252797 8.85773e-05 0.100101)
(0.000232572 9.06532e-05 0.100093)
(0.000210907 9.23069e-05 0.10007)
(0.000188755 9.38434e-05 0.100048)
(0.000166459 9.5344e-05 0.100031)
(0.000144164 9.68009e-05 0.100019)
(0.000121915 9.81643e-05 0.100011)
(9.97114e-05 9.93769e-05 0.100005)
(7.75379e-05 0.000100384 0.100002)
(5.53738e-05 0.000101149 0.0999998)
(3.32069e-05 0.000101647 0.0999987)
(1.10325e-05 0.000101866 0.0999982)
(-1.11461e-05 0.0001018 0.0999983)
(-3.33216e-05 0.000101452 0.0999989)
(-5.54923e-05 0.000100829 0.1)
(-7.76624e-05 9.99448e-05 0.100002)
(-9.98449e-05 9.88268e-05 0.100005)
(-0.000122062 9.75169e-05 0.100011)
(-0.00014433 9.60672e-05 0.100018)
(-0.000166648 9.45406e-05 0.10003)
(-0.000188969 9.29803e-05 0.100045)
(-0.00021115 9.13958e-05 0.100066)
(-0.00023284 8.96951e-05 0.100087)
(-0.00025309 8.75748e-05 0.100092)
(-0.000268947 8.41372e-05 0.100002)
(-0.000255196 7.3468e-05 0.0992138)
(-0.0001837 4.63821e-05 0.0929668)
(0.000186867 3.39552e-05 0.0932258)
(0.000259514 5.3379e-05 0.0993123)
(0.000272036 6.08212e-05 0.100036)
(0.000255569 6.32803e-05 0.100109)
(0.000234871 6.48515e-05 0.100095)
(0.000212886 6.61401e-05 0.100069)
(0.000190503 6.73422e-05 0.100046)
(0.000168025 6.85099e-05 0.100029)
(0.000145557 6.96364e-05 0.100017)
(0.000123129 7.06856e-05 0.100009)
(0.000100735 7.16168e-05 0.100004)
(7.83571e-05 7.23901e-05 0.100001)
(5.59791e-05 7.29765e-05 0.0999999)
(3.35907e-05 7.33551e-05 0.0999991)
(1.11917e-05 7.35151e-05 0.0999988)
(-1.12115e-05 7.34525e-05 0.0999988)
(-3.36117e-05 7.31685e-05 0.0999993)
(-5.60028e-05 7.26704e-05 0.1)
(-7.83861e-05 7.19731e-05 0.100002)
(-0.000100772 7.10978e-05 0.100005)
(-0.000123177 7.00776e-05 0.100009)
(-0.000145621 6.89523e-05 0.100016)
(-0.000168108 6.77617e-05 0.100028)
(-0.000190608 6.65387e-05 0.100044)
(-0.000213014 6.52854e-05 0.100066)
(-0.000235026 6.39451e-05 0.100091)
(-0.000255745 6.23101e-05 0.100104)
(-0.000272234 5.97745e-05 0.10003)
(-0.000259723 5.22389e-05 0.0993056)
(-0.000187078 3.28916e-05 0.0932217)
(0.000189147 2.00085e-05 0.0933874)
(0.000262506 3.15768e-05 0.0993679)
(0.000274199 3.60171e-05 0.100052)
(0.000257301 3.75779e-05 0.100114)
(0.000236287 3.86485e-05 0.100097)
(0.000214083 3.95665e-05 0.100069)
(0.000191555 4.04404e-05 0.100045)
(0.000168964 4.12941e-05 0.100028)
(0.000146395 4.2115e-05 0.100016)
(0.000123864 4.28804e-05 0.100008)
(0.000101359 4.35578e-05 0.100004)
(7.88601e-05 4.41207e-05 0.100002)
(5.63524e-05 4.45451e-05 0.100001)
(3.38292e-05 4.48158e-05 0.1)
(1.12928e-05 4.49225e-05 0.0999998)
(-1.12494e-05 4.48619e-05 0.0999999)
(-3.3786e-05 4.46352e-05 0.1)
(-5.63088e-05 4.42507e-05 0.100001)
(-7.88172e-05 4.37201e-05 0.100002)
(-0.000101318 4.30634e-05 0.100005)
(-0.000123827 4.23044e-05 0.100009)
(-0.000146365 4.1472e-05 0.100016)
(-0.000168944 4.05941e-05 0.100028)
(-0.000191549 3.96919e-05 0.100045)
(-0.000214096 3.877e-05 0.100068)
(-0.000236321 3.7798e-05 0.100095)
(-0.000257359 3.66602e-05 0.100113)
(-0.000274281 3.50049e-05 0.100049)
(-0.000262613 3.04466e-05 0.0993649)
(-0.000189268 1.89215e-05 0.0933854)
(0.000190239 5.77643e-06 0.0934666)
(0.000263918 9.4409e-06 0.0993954)
(0.000275185 1.09713e-05 0.10006)
(0.000258065 1.16548e-05 0.100118)
(0.00023689 1.22185e-05 0.100098)
(0.000214581 1.27593e-05 0.10007)
(0.000191985 1.33018e-05 0.100045)
(0.000169347 1.38429e-05 0.100028)
(0.00014674 1.43706e-05 0.100016)
(0.000124171 1.4864e-05 0.100009)
(0.000101623 1.53033e-05 0.100005)
(7.90763e-05 1.56677e-05 0.100003)
(5.65156e-05 1.59409e-05 0.100002)
(3.39355e-05 1.61095e-05 0.100001)
(1.13396e-05 1.61655e-05 0.100001)
(-1.12612e-05 1.61051e-05 0.100001)
(-3.38546e-05 1.59314e-05 0.100002)
(-5.64306e-05 1.56501e-05 0.100002)
(-7.8985e-05 1.52746e-05 0.100004)
(-0.000101524 1.48201e-05 0.100006)
(-0.000124065 1.43063e-05 0.10001)
(-0.000146628 1.37529e-05 0.100018)
(-0.000169234 1.31785e-05 0.10003)
(-0.000191875 1.25974e-05 0.100048)
(-0.000214482 1.20164e-05 0.100072)
(-0.000236808 1.14285e-05 0.1001)
(-0.000258005 1.07992e-05 0.10012)
(-0.000275153 1.00193e-05 0.100062)
(-0.000263924 8.35085e-06 0.0993962)
(-0.000190266 4.69753e-06 0.0934668)
(0.000190142 -8.53272e-06 0.0934675)
(0.000263783 -1.27913e-05 0.099397)
(0.000275026 -1.41395e-05 0.100062)
(0.000257898 -1.43326e-05 0.10012)
(0.000236723 -1.42778e-05 0.1001)
(0.000214421 -1.41214e-05 0.100071)
(0.000191837 -1.39167e-05 0.100047)
(0.000169217 -1.36893e-05 0.100029)
(0.00014663 -1.34564e-05 0.100017)
(0.000124082 -1.32317e-05 0.10001)
(0.000101555 -1.30281e-05 0.100006)
(7.90271e-05 -1.28582e-05 0.100004)
(5.64836e-05 -1.27342e-05 0.100003)
(3.39191e-05 -1.26658e-05 0.100003)
(1.13382e-05 -1.2661e-05 0.100003)
(-1.12478e-05 -1.27219e-05 0.100003)
(-3.38246e-05 -1.28476e-05 0.100003)
(-5.638e-05 -1.30293e-05 0.100004)
(-7.891e-05 -1.32571e-05 0.100005)
(-0.00010142 -1.35155e-05 0.100008)
(-0.000123927 -1.37904e-05 0.100012)
(-0.000146456 -1.40681e-05 0.10002)
(-0.000169027 -1.43379e-05 0.100033)
(-0.000191638 -1.45914e-05 0.100051)
(-0.000214223 -1.48203e-05 0.100076)
(-0.000236537 -1.50091e-05 0.100106)
(-0.000257732 -1.51163e-05 0.100126)
(-0.000274889 -1.50137e-05 0.100068)
(-0.000263694 -1.38102e-05 0.0994018)
(-0.000190077 -9.5731e-06 0.09347)
(0.000188857 -2.27293e-05 0.0933902)
(0.000262102 -3.48869e-05 0.0993727)
(0.000273728 -3.91478e-05 0.100057)
(0.000256807 -4.02273e-05 0.10012)
(0.000235795 -4.06878e-05 0.100102)
(0.000213612 -4.09196e-05 0.100074)
(0.000191122 -4.10572e-05 0.100049)
(0.000168582 -4.11504e-05 0.100031)
(0.000146074 -4.12193e-05 0.100019)
(0.000123605 -4.12712e-05 0.100012)
(0.000101162 -4.131e-05 0.100008)
(7.87193e-05 -4.1341e-05 0.100005)
(5.6263e-05 -4.13699e-05 0.100004)
(3.37857e-05 -4.14058e-05 0.100004)
(1.12918e-05 -4.14535e-05 0.100004)
(-1.12066e-05 -4.15177e-05 0.100004)
(-3.36945e-05 -4.15949e-05 0.100005)
(-5.616e-05 -4.16789e-05 0.100005)
(-7.85978e-05 -4.17574e-05 0.100007)
(-0.000101014 -4.18181e-05 0.10001)
(-0.000123427 -4.18506e-05 0.100015)
(-0.000145862 -4.18464e-05 0.100023)
(-0.000168341 -4.18046e-05 0.100036)
(-0.000190857 -4.17214e-05 0.100056)
(-0.000213338 -4.15884e-05 0.100081)
(-0.000235523 -4.13662e-05 0.100111)
(-0.000256553 -4.09365e-05 0.10013)
(-0.000273502 -3.99282e-05 0.100067)
(-0.000261931 -3.58079e-05 0.0993817)
(-0.000188707 -2.36985e-05 0.093395)
(0.000186389 -3.66055e-05 0.0932304)
(0.000258853 -5.66056e-05 0.0993205)
(0.000271266 -6.388e-05 0.100045)
(0.000254766 -6.5871e-05 0.100118)
(0.000234077 -6.68535e-05 0.100103)
(0.000212129 -6.74755e-05 0.100076)
(0.000189813 -6.79605e-05 0.100053)
(0.000167421 -6.8387e-05 0.100035)
(0.000145052 -6.87741e-05 0.100022)
(0.000122727 -6.91215e-05 0.100015)
(0.000100432 -6.9421e-05 0.10001)
(7.81465e-05 -6.96679e-05 0.100008)
(5.585e-05 -6.98625e-05 0.100006)
(3.35353e-05 -7.00093e-05 0.100006)
(1.12045e-05 -7.0115e-05 0.100006)
(-1.11313e-05 -7.01823e-05 0.100006)
(-3.34568e-05 -7.02097e-05 0.100007)
(-5.57597e-05 -7.01899e-05 0.100007)
(-7.80352e-05 -7.01106e-05 0.100009)
(-0.000100293 -6.99631e-05 0.100012)
(-0.000122549 -6.97369e-05 0.100017)
(-0.000144832 -6.94372e-05 0.100026)
(-0.000167159 -6.90665e-05 0.10004)
(-0.000189516 -6.8636e-05 0.10006)
(-0.00021181 -6.81301e-05 0.100086)
(-0.000233752 -6.74908e-05 0.100115)
(-0.000254451 -6.65076e-05 0.100131)
(-0.000270976 -6.45576e-05 0.100059)
(-0.00025862 -5.74057e-05 0.0993335)
(-0.000186166 -3.74739e-05 0.0932377)
(0.000182752 -4.99288e-05 0.0929795)
(0.000253992 -7.7682e-05 0.0992354)
(0.000267592 -8.81458e-05 0.100024)
(0.000251717 -9.10852e-05 0.100113)
(0.000231511 -9.25991e-05 0.100104)
(0.00020991 -9.3616e-05 0.10008)
(0.000187852 -9.44648e-05 0.100057)
(0.000165679 -9.52468e-05 0.100039)
(0.00014352 -9.59856e-05 0.100026)
(0.000121408 -9.66619e-05 0.100018)
(9.93393e-05 -9.72547e-05 0.100013)
(7.72883e-05 -9.77431e-05 0.100011)
(5.52347e-05 -9.81232e-05 0.100009)
(3.31646e-05 -9.83936e-05 0.100009)
(1.10789e-05 -9.85626e-05 0.100009)
(-1.1012e-05 -9.8633e-05 0.100009)
(-3.30945e-05 -9.86046e-05 0.100009)
(-5.51557e-05 -9.84688e-05 0.10001)
(-7.71948e-05 -9.82159e-05 0.100012)
(-9.92182e-05 -9.78336e-05 0.100015)
(-0.000121251 -9.73246e-05 0.10002)
(-0.000143316 -9.66955e-05 0.10003)
(-0.000165427 -9.59712e-05 0.100044)
(-0.000187557 -9.51666e-05 0.100064)
(-0.000209583 -9.42775e-05 0.10009)
(-0.000231169 -9.32088e-05 0.100117)
(-0.000251376 -9.16573e-05 0.100129)
(-0.000267269 -8.87189e-05 0.100042)
(-0.000253725 -7.83443e-05 0.0992523)
(-0.000182474 -5.06716e-05 0.0929893)
(0.000177967 -6.24497e-05 0.0926235)
(0.00024745 -9.78069e-05 0.0991102)
(0.000262635 -0.000111719 0.0999925)
(0.000247574 -0.000115657 0.100104)
(0.000228002 -0.000117721 0.100104)
(0.000206855 -0.000119159 0.100083)
(0.000185145 -0.000120401 0.100062)
(0.000163273 -0.000121592 0.100044)
(0.000141405 -0.000122735 0.100032)
(0.000119597 -0.000123797 0.100023)
(9.78432e-05 -0.000124728 0.100018)
(7.61202e-05 -0.000125499 0.100015)
(5.44004e-05 -0.000126089 0.100013)
(3.26686e-05 -0.000126502 0.100013)
(1.09196e-05 -0.000126739 0.100013)
(-1.08366e-05 -0.000126812 0.100013)
(-3.25864e-05 -0.000126718 0.100013)
(-5.43195e-05 -0.000126449 0.100014)
(-7.60316e-05 -0.000125993 0.100015)
(-9.77399e-05 -0.000125343 0.100018)
(-0.000119465 -0.000124503 0.100024)
(-0.000141235 -0.000123497 0.100034)
(-0.000163056 -0.000122366 0.100048)
(-0.000184883 -0.000121147 0.100068)
(-0.000206558 -0.00011984 0.100093)
(-0.000227678 -0.000118323 0.100117)
(-0.000247245 -0.000116179 0.100121)
(-0.000262316 -0.000112192 0.100013)
(-0.000247183 -9.83261e-05 0.0991302)
(-0.000177657 -6.30499e-05 0.0926355)
(0.000172062 -7.38893e-05 0.0921429)
(0.000239144 -0.000116597 0.0989339)
(0.000256291 -0.000134316 0.0999471)
(0.000242216 -0.000139329 0.10009)
(0.000223414 -0.000142005 0.100101)
(0.000202842 -0.000143904 0.100086)
(0.000181576 -0.000145622 0.100067)
(0.000160105 -0.000147299 0.10005)
(0.000138637 -0.000148936 0.100038)
(0.000117236 -0.00015046 0.10003)
(9.59061e-05 -0.000151798 0.100024)
(7.4618e-05 -0.000152897 0.100021)
(5.33384e-05 -0.000153734 0.10002)
(3.20437e-05 -0.000154303 0.100019)
(1.07313e-05 -0.000154621 0.100019)
(-1.05941e-05 -0.000154692 0.100019)
(-3.1914e-05 -0.00015452 0.10002)
(-5.32179e-05 -0.000154095 0.10002)
(-7.45084e-05 -0.000153402 0.100021)
(-9.5798e-05 -0.000152432 0.100024)
(-0.000117118 -0.000151198 0.100029)
(-0.000138495 -0.000149742 0.100038)
(-0.000159932 -0.000148123 0.100051)
(-0.000181365 -0.000146412 0.10007)
(-0.000202596 -0.00014462 0.100093)
(-0.000223146 -0.000142612 0.100113)
(-0.000241933 -0.00013982 0.100107)
(-0.000256014 -0.00013471 0.0999681)
(-0.000238911 -0.000116979 0.0989561)
(-0.000171745 -7.43455e-05 0.0921569)
(0.000165103 -8.3911e-05 0.0915134)
(0.000228966 -0.000133526 0.0986915)
(0.000248438 -0.000155546 0.0998837)
(0.000235488 -0.000161775 0.100069)
(0.000217615 -0.000165157 0.100095)
(0.000197745 -0.000167664 0.100087)
(0.000177043 -0.00016998 0.100072)
(0.000156099 -0.000172285 0.100058)
(0.000135152 -0.000174536 0.100047)
(0.000114292 -0.000176626 0.100039)
(9.3512e-05 -0.000178451 0.100034)
(7.27766e-05 -0.000179935 0.100031)
(5.20478e-05 -0.000181049 0.10003)
(3.12976e-05 -0.000181799 0.10003)
(1.05177e-05 -0.000182199 0.10003)
(-1.02753e-05 -0.000182268 0.10003)
(-3.10675e-05 -0.000182006 0.10003)
(-5.18417e-05 -0.000181402 0.10003)
(-7.25964e-05 -0.000180431 0.100031)
(-9.33539e-05 -0.000179084 0.100033)
(-0.000114149 -0.000177378 0.100036)
(-0.000135012 -0.000175364 0.100044)
(-0.000155945 -0.000173143 0.100055)
(-0.000176874 -0.000170811 0.100071)
(-0.000197558 -0.000168415 0.100089)
(-0.000217406 -0.000165787 0.100103)
(-0.000235277 -0.000162258 0.100083)
(-0.000248231 -0.000155882 0.0999033)
(-0.000228798 -0.000133794 0.0987143)
(-0.000164803 -8.4239e-05 0.0915288)
(0.000157288 -9.20236e-05 0.0907083)
(0.000216839 -0.000147838 0.0983582)
(0.000238938 -0.000174885 0.0997944)
(0.000227285 -0.000182601 0.100037)
(0.00021048 -0.000186921 0.100084)
(0.000191464 -0.000190247 0.100086)
(0.000171474 -0.000193377 0.100076)
(0.0001512 -0.000196495 0.100066)
(0.000130939 -0.000199519 0.100057)
(0.000110765 -0.0002023 0.100051)
(9.06754e-05 -0.000204692 0.100047)
(7.06229e-05 -0.000206617 0.100046)
(5.0554e-05 -0.000208041 0.100045)
(3.0444e-05 -0.000208982 0.100045)
(1.02917e-05 -0.000209471 0.100045)
(-9.88728e-06 -0.000209534 0.100046)
(-3.00582e-05 -0.000209174 0.100046)
(-5.02003e-05 -0.000208369 0.100046)
(-7.03099e-05 -0.000207088 0.100046)
(-9.0409e-05 -0.000205306 0.100046)
(-0.000110537 -0.000203035 0.100047)
(-0.000130739 -0.00020035 0.100051)
(-0.000151025 -0.000197366 0.100059)
(-0.000171307 -0.000194234 0.10007)
(-0.000191301 -0.000191034 0.100081)
(-0.00021033 -0.000187577 0.100084)
(-0.000227134 -0.000183096 0.100045)
(-0.000238815 -0.000175197 0.0998098)
(-0.000216752 -0.000148026 0.0983795)
(-0.000157018 -9.22619e-05 0.0907249)
(0.000149076 -9.77881e-05 0.0896763)
(0.000202622 -0.000158527 0.0978854)
(0.000227621 -0.000191654 0.0996615)
(0.00021745 -0.000201329 0.0999859)
(0.000201954 -0.000207001 0.100062)
(0.000183964 -0.0002115 0.100078)
(0.000164853 -0.00021573 0.100078)
(0.00014543 -0.000219896 0.100073)
(0.000126015 -0.000223877 0.100069)
(0.000106707 -0.000227469 0.100066)
(8.74591e-05 -0.000230513 0.100065)
(6.82081e-05 -0.000232916 0.100065)
(4.89041e-05 -0.000234666 0.100066)
(2.9516e-05 -0.000235802 0.100067)
(1.00549e-05 -0.00023638 0.100068)
(-9.43803e-06 -0.000236435 0.100068)
(-2.89179e-05 -0.000235974 0.100068)
(-4.83447e-05 -0.000234964 0.100068)
(-6.77032e-05 -0.000233349 0.100066)
(-8.70089e-05 -0.000231085 0.100064)
(-0.00010632 -0.000228173 0.100063)
(-0.000125691 -0.00022468 0.100062)
(-0.000145148 -0.00022076 0.100063)
(-0.000164625 -0.000216596 0.100066)
(-0.000183776 -0.000212303 0.100067)
(-0.000201796 -0.000207691 0.100054)
(-0.000217346 -0.000201848 0.0999847)
(-0.000227554 -0.000191971 0.0996695)
(-0.000202598 -0.000158683 0.0979023)
(-0.000148835 -9.79986e-05 0.0896928)
(0.000140168 -0.00010065 0.088318)
(0.000186007 -0.000164264 0.0971804)
(0.000214246 -0.000204603 0.0994498)
(0.000205976 -0.000217188 0.0998999)
(0.000192021 -0.000224951 0.100022)
(0.000175238 -0.000231137 0.100061)
(0.000157166 -0.00023686 0.100073)
(0.000138762 -0.000242356 0.100077)
(0.000120423 -0.000247486 0.10008)
(0.000102167 -0.00025201 0.100083)
(8.39248e-05 -0.000255761 0.100086)
(6.56076e-05 -0.000258658 0.100089)
(4.71469e-05 -0.000260734 0.100092)
(2.85385e-05 -0.000262056 0.100094)
(9.81873e-06 -0.000262716 0.100096)
(-8.95048e-06 -0.000262764 0.100097)
(-2.76923e-05 -0.000262207 0.100097)
(-4.63372e-05 -0.000260995 0.100095)
(-6.48475e-05 -0.000259048 0.100092)
(-8.32365e-05 -0.000256284 0.100087)
(-0.00010155 -0.000252665 0.10008)
(-0.00011988 -0.000248251 0.100073)
(-0.000138307 -0.000243191 0.100065)
(-0.000156778 -0.000237721 0.100057)
(-0.000174929 -0.000231952 0.100043)
(-0.0001918 -0.000225669 0.100005)
(-0.000205825 -0.000217737 0.0998881)
(-0.000214184 -0.000204955 0.0994473)
(-0.000186009 -0.000164431 0.0971898)
(-0.000139919 -0.000100905 0.0883318)
(0.000130711 -0.000101492 0.086509)
(0.000167628 -0.000160317 0.0960586)
(0.000198894 -0.000211776 0.0990845)
(0.00019291 -0.00022936 0.099752)
(0.000180537 -0.000240009 0.0999489)
(0.000164936 -0.000248491 0.100017)
(0.000148038 -0.000256162 0.100047)
(0.00013095 -0.000263326 0.100065)
(0.000113986 -0.000269821 0.100079)
(9.70822e-05 -0.000275398 0.100091)
(8.00624e-05 -0.000279882 0.100101)
(6.28086e-05 -0.000283277 0.10011)
(4.52852e-05 -0.000285655 0.100116)
(2.75141e-05 -0.000287155 0.100121)
(9.56859e-06 -0.000287891 0.100125)
(-8.43926e-06 -0.000287932 0.100126)
(-2.63972e-05 -0.000287285 0.100126)
(-4.42005e-05 -0.000285883 0.100122)
(-6.17722e-05 -0.00028362 0.100116)
(-7.90805e-05 -0.000280357 0.100106)
(-9.61794e-05 -0.000275999 0.100092)
(-0.000113168 -0.00027054 0.100075)
(-0.000130219 -0.000264138 0.100054)
(-0.000147411 -0.000257002 0.10003)
(-0.000164413 -0.000249328 0.099995)
(-0.000180121 -0.000240753 0.0999243)
(-0.000192633 -0.000229965 0.0997293)
(-0.000198749 -0.000212165 0.0990698)
(-0.000167609 -0.000160498 0.0960581)
(-0.000130468 -0.000101818 0.0865184)
(0.000130753 -7.36813e-05 0.0840017)
(0.000146501 -0.000149443 0.0941145)
(0.000180898 -0.000215912 0.0983982)
(0.000177756 -0.000236772 0.0994747)
(0.000166016 -0.000250782 0.0997766)
(0.000151228 -0.000262208 0.0998858)
(0.000135943 -0.000272386 0.0999476)
(0.000120859 -0.000281597 0.0999937)
(0.000105964 -0.000289617 0.100031)
(9.09333e-05 -0.000296245 0.10006)
(7.54981e-05 -0.000301434 0.100084)
(5.95572e-05 -0.000305269 0.100102)
(4.31308e-05 -0.000307932 0.100116)
(2.63139e-05 -0.000309604 0.100126)
(9.25966e-06 -0.000310416 0.100132)
(-7.88414e-06 -0.000310453 0.100134)
(-2.49485e-05 -0.000309711 0.100132)
(-4.17796e-05 -0.000308134 0.100125)
(-5.82351e-05 -0.000305569 0.100112)
(-7.4221e-05 -0.000301859 0.100094)
(-8.97125e-05 -0.0002968 0.100067)
(-0.000104825 -0.000290293 0.100032)
(-0.000119808 -0.000282368 0.0999884)
(-0.000134987 -0.000273236 0.099934)
(-0.000150396 -0.000263053 0.0998641)
(-0.000165317 -0.000251574 0.0997483)
(-0.000177198 -0.000237447 0.0994439)
(-0.000180477 -0.000216411 0.0983721)
(-0.000146368 -0.000149651 0.0941035)
(-0.000130118 -7.43291e-05 0.0840049)