/*--------------------------------*- C++ -*----------------------------------*\
| =========                 |                                                 |
| \\      /  F ield         | OpenFOAM: The Open Source CFD Toolbox           |
|  \\    /   O peration     | Version:  2312                                  |
|   \\  /    A nd           | Website:  www.openfoam.com                      |
|    \\/     M anipulation  |                                                 |
\*---------------------------------------------------------------------------*/
FoamFile
{
    version     2.0;
    format      ascii;
    arch        "LSB;label=32;scalar=64";
    class       volScalarField;
    location    "800";
    object      alphat;
}
// * * * * * * * * * * * * * * * * * * * * * * * * * * * * * * * * * * * * * //

dimensions      [1 -1 -1 0 0 0 0];

internalField   nonuniform List<scalar> 
27000
(
0.00394559
0.00669898
0.00936453
0.011757
0.0140843
0.0162568
0.0182291
0.0198954
0.0213291
0.0225547
0.0235735
0.0243867
0.0249952
0.0253977
0.0255976
0.0255983
0.0253997
0.0249979
0.0243901
0.0235774
0.0225587
0.0213328
0.0198983
0.0182307
0.0162565
0.0140813
0.011751
0.00935608
0.0066909
0.00394111
0.00574126
0.00127119
0.00514766
0.00906905
0.0131368
0.0169905
0.0206178
0.0239831
0.0270278
0.0297311
0.0320598
0.0339779
0.0354516
0.0364536
0.0369621
0.036958
0.0364423
0.035436
0.0339597
0.0320404
0.0297121
0.0270111
0.0239715
0.020615
0.0169887
0.0131335
0.00906474
0.00514084
0.00126686
0.00573584
0.00921446
0.00710497
0.0146618
0.0263424
0.0369707
0.0462267
0.0546296
0.0624558
0.0695479
0.0757932
0.0811094
0.085432
0.0887188
0.090933
0.0920487
0.0920453
0.0909272
0.0887245
0.0854622
0.0811681
0.0758834
0.06967
0.0626069
0.0548112
0.0463974
0.0371179
0.0264741
0.014722
0.00708117
0.00920743
0.0121515
0.0108359
0.0263707
0.0530837
0.0784509
0.0964133
0.109812
0.120717
0.129815
0.137326
0.143452
0.148268
0.151838
0.154201
0.155383
0.155393
0.154237
0.151914
0.1484
0.143645
0.137577
0.130108
0.121031
0.110116
0.0966869
0.0787353
0.0533906
0.0265297
0.0108235
0.012148
0.0149276
0.0144774
0.0372153
0.0767414
0.113586
0.13925
0.155998
0.167758
0.176458
0.182749
0.18765
0.191363
0.194041
0.195781
0.196646
0.196664
0.19584
0.194149
0.191529
0.187872
0.183007
0.176706
0.168022
0.156267
0.139525
0.113919
0.0770991
0.037394
0.0144687
0.0149283
0.0174986
0.0184073
0.0480095
0.0958365
0.138325
0.167671
0.185552
0.196819
0.204218
0.209171
0.212603
0.215012
0.216663
0.217702
0.218212
0.218229
0.217757
0.216761
0.215154
0.212781
0.209368
0.20442
0.197039
0.185831
0.167973
0.138667
0.096175
0.0481723
0.0183973
0.0175033
0.0198395
0.0225239
0.0587629
0.112026
0.156287
0.18554
0.203078
0.213307
0.219339
0.222956
0.22517
0.22655
0.227408
0.227913
0.228153
0.228167
0.227956
0.227482
0.226653
0.225295
0.223092
0.219481
0.213466
0.203272
0.18578
0.156561
0.112285
0.0588436
0.0224997
0.0198476
0.0219348
0.0266923
0.0691754
0.125957
0.1703
0.197712
0.213608
0.222389
0.227122
0.229632
0.230942
0.231613
0.231947
0.232108
0.232176
0.232186
0.232139
0.231998
0.231681
0.231022
0.229717
0.22721
0.222486
0.213725
0.197849
0.170414
0.1261
0.0691944
0.0266587
0.0219461
0.0237529
0.030792
0.0788996
0.13783
0.181232
0.206321
0.220178
0.227407
0.230979
0.232628
0.233308
0.233527
0.233551
0.233516
0.233489
0.233496
0.233537
0.233583
0.233568
0.233352
0.232671
0.231019
0.227446
0.220218
0.206347
0.181186
0.137861
0.0788543
0.0307435
0.0237695
0.0253068
0.0346704
0.0877373
0.147771
0.188944
0.212245
0.224326
0.230197
0.232823
0.233836
0.234101
0.234053
0.233913
0.233784
0.233712
0.233716
0.233795
0.23393
0.234072
0.234116
0.233843
0.23282
0.230186
0.224309
0.212222
0.188914
0.147728
0.0876372
0.0346109
0.0253256
0.0265997
0.0381696
0.0954762
0.156106
0.195337
0.216564
0.227032
0.231775
0.233669
0.234235
0.23424
0.234051
0.233838
0.233674
0.233588
0.23359
0.233678
0.233842
0.23405
0.23423
0.234211
0.23363
0.231722
0.226968
0.216493
0.195256
0.155989
0.0953317
0.0381023
0.0266198
0.0276323
0.0411507
0.101896
0.162776
0.20032
0.219738
0.228846
0.232692
0.234042
0.234305
0.234156
0.2339
0.233666
0.2335
0.233415
0.233414
0.233497
0.233658
0.233883
0.234124
0.234255
0.233972
0.232602
0.22874
0.219618
0.200179
0.162596
0.101718
0.041077
0.0276534
0.0284053
0.0434963
0.106841
0.167798
0.203962
0.221972
0.230045
0.233231
0.234201
0.234267
0.234032
0.233751
0.23352
0.233364
0.233286
0.233284
0.233356
0.233503
0.233721
0.233983
0.234196
0.234105
0.233112
0.229904
0.22181
0.203767
0.167546
0.106636
0.0434176
0.0284271
0.0289197
0.0451138
0.1102
0.171186
0.20635
0.223397
0.230779
0.233535
0.234265
0.234216
0.233936
0.23365
0.233428
0.233285
0.233214
0.23321
0.233273
0.233405
0.23361
0.233876
0.23413
0.234153
0.233396
0.230615
0.223207
0.206122
0.170903
0.10998
0.045032
0.0289418
0.0291759
0.0459396
0.111899
0.172884
0.207531
0.224091
0.231128
0.233673
0.234289
0.234186
0.233889
0.233602
0.233388
0.233252
0.233186
0.233181
0.233238
0.233361
0.233558
0.233823
0.234094
0.234168
0.233525
0.230954
0.223889
0.207292
0.172593
0.111675
0.0458563
0.0291982
0.0291745
0.0459412
0.111907
0.17289
0.207534
0.224093
0.23113
0.233676
0.234292
0.234189
0.233893
0.233607
0.233393
0.233257
0.23319
0.233186
0.233243
0.233366
0.233564
0.233828
0.234099
0.234173
0.233529
0.230957
0.223892
0.207297
0.172602
0.111684
0.0458583
0.0291965
0.0289154
0.0451185
0.110221
0.171203
0.20636
0.223403
0.230784
0.233541
0.234274
0.234226
0.233948
0.233662
0.233441
0.233298
0.233227
0.233224
0.233286
0.233419
0.233625
0.23389
0.234144
0.234165
0.233406
0.230624
0.223217
0.206139
0.170929
0.110008
0.0450375
0.0289369
0.0283986
0.0435035
0.106877
0.167827
0.203982
0.221985
0.230055
0.233242
0.234213
0.234282
0.234048
0.233769
0.233538
0.233382
0.233305
0.233303
0.233375
0.233523
0.233742
0.234004
0.234216
0.234123
0.233127
0.229917
0.221826
0.203793
0.16759
0.106681
0.0434262
0.0284192
0.0276235
0.0411594
0.101948
0.162829
0.200356
0.219759
0.228861
0.232706
0.234058
0.234322
0.234174
0.233918
0.233684
0.233518
0.233433
0.233433
0.233517
0.23368
0.233906
0.234148
0.234278
0.233993
0.23262
0.228756
0.219638
0.200215
0.162656
0.101779
0.0410879
0.0276427
0.0265893
0.0381784
0.0955413
0.156182
0.195391
0.216597
0.227053
0.231792
0.233684
0.23425
0.234255
0.234065
0.233851
0.233687
0.233601
0.233604
0.233694
0.23386
0.234071
0.234252
0.234233
0.23365
0.23174
0.226987
0.216519
0.195301
0.156063
0.0954059
0.0381144
0.0266068
0.0252954
0.0346778
0.0878137
0.147872
0.189017
0.212291
0.224356
0.230217
0.232838
0.233848
0.23411
0.23406
0.233917
0.233786
0.233714
0.23372
0.233802
0.23394
0.234086
0.234133
0.233862
0.232839
0.230205
0.224331
0.212256
0.188973
0.147815
0.0877187
0.0346226
0.0253107
0.0237412
0.0307955
0.0789829
0.137955
0.181308
0.206386
0.220222
0.227434
0.230996
0.232638
0.233312
0.233526
0.233545
0.233507
0.233479
0.233488
0.233532
0.233585
0.233575
0.233366
0.232688
0.231038
0.227468
0.220248
0.206397
0.181268
0.137962
0.0789356
0.0307512
0.0237537
0.0219249
0.0266897
0.0692674
0.126125
0.170443
0.197818
0.213677
0.222432
0.227149
0.229648
0.230948
0.23161
0.231935
0.23209
0.232156
0.232168
0.232126
0.231994
0.231687
0.231037
0.22974
0.227239
0.222521
0.21377
0.197918
0.170522
0.126219
0.0692737
0.0266583
0.0219327
0.01983
0.0225204
0.0588727
0.112245
0.156498
0.185679
0.203184
0.213382
0.219393
0.222996
0.225196
0.226561
0.227404
0.227898
0.228133
0.228149
0.227947
0.227485
0.226671
0.225328
0.223138
0.219537
0.21353
0.203346
0.185873
0.1567
0.112432
0.0589308
0.0224976
0.0198347
0.0174895
0.0184069
0.0481445
0.0960924
0.138591
0.167885
0.185721
0.19695
0.204323
0.209261
0.212674
0.21506
0.216687
0.21771
0.218213
0.218233
0.217772
0.216791
0.215205
0.212855
0.209462
0.204528
0.197159
0.185945
0.168134
0.138855
0.0963469
0.0482676
0.0183961
0.0174912
0.014919
0.0144714
0.0373374
0.0770064
0.113882
0.139513
0.156229
0.167947
0.17662
0.182911
0.187787
0.191467
0.194114
0.195835
0.196693
0.196715
0.195904
0.194233
0.191638
0.18801
0.18317
0.176882
0.168218
0.156491
0.139769
0.114163
0.077287
0.0374743
0.0144614
0.0149176
0.0121434
0.0108243
0.0264631
0.0533073
0.0787081
0.0966724
0.110075
0.120969
0.130047
0.137532
0.143626
0.14841
0.151952
0.154301
0.155481
0.1555
0.154359
0.152054
0.148563
0.143832
0.137789
0.130339
0.12128
0.110376
0.0969435
0.0789718
0.0535629
0.0265869
0.0108115
0.012139
0.00920762
0.0070916
0.0146876
0.0264299
0.0370882
0.046369
0.0547808
0.0625936
0.0696771
0.0759119
0.0812159
0.0855258
0.0888004
0.0910161
0.0921397
0.0921469
0.0910395
0.0888438
0.0855923
0.0813083
0.0760312
0.0698215
0.062759
0.0549702
0.0465395
0.0372306
0.0265481
0.0147368
0.00707297
0.00920129
0.00573663
0.00126859
0.00513864
0.00906151
0.0131317
0.0169886
0.0206172
0.0239789
0.0270223
0.0297252
0.032054
0.0339727
0.035448
0.0364575
0.0369709
0.0369694
0.0364537
0.0354429
0.0339669
0.032048
0.0297198
0.0270182
0.0239773
0.0206213
0.0169916
0.013131
0.00905811
0.00513129
0.00126479
0.00573148
0.00394258
0.00669343
0.00935763
0.0117498
0.0140767
0.0162488
0.0182206
0.0198863
0.0213194
0.0225442
0.0235623
0.0243745
0.0249815
0.0253806
0.0255792
0.0255794
0.025381
0.0249821
0.0243751
0.0235627
0.0225444
0.0213191
0.0198853
0.0182185
0.0162456
0.0140719
0.0117432
0.00934975
0.00668634
0.0039387
0.003575
0.00610673
0.00870139
0.0110557
0.0134072
0.0156305
0.0176823
0.0194527
0.0209983
0.0223276
0.0234329
0.0243187
0.0249847
0.0254348
0.0256626
0.0256621
0.0254336
0.0249839
0.0243177
0.0234315
0.022326
0.0209957
0.0194506
0.017684
0.0156369
0.0134182
0.0110713
0.00871918
0.00612401
0.00358483
0.00514751
0.00165148
0.00753093
0.0111653
0.0147734
0.0177981
0.0203704
0.0227835
0.0248895
0.0266878
0.0282027
0.02943
0.0303586
0.0309794
0.0312865
0.0312861
0.030977
0.0303518
0.0294178
0.0281869
0.0266716
0.0248763
0.0227835
0.0204518
0.0178902
0.0148523
0.0112219
0.00755364
0.00167566
0.00516139
0.00871357
0.0103334
0.0131515
0.0165876
0.0217412
0.0272248
0.032393
0.0369708
0.0411528
0.0448687
0.0480333
0.0505956
0.0525023
0.0537805
0.0544341
0.0544637
0.0538607
0.0525851
0.0506428
0.0480643
0.0448847
0.0411463
0.0369329
0.0322856
0.0271176
0.0216591
0.0165303
0.0131466
0.0104206
0.00872925
0.0115845
0.0135707
0.0177298
0.025226
0.035137
0.0458605
0.0556738
0.0644408
0.0723176
0.0794245
0.0854266
0.0902068
0.0937372
0.0960703
0.0972529
0.0973058
0.0962167
0.0939375
0.0904211
0.0856341
0.0795913
0.0724044
0.0644144
0.0555474
0.0456944
0.034967
0.0251163
0.017727
0.0136604
0.0115941
0.0144209
0.0160552
0.0225884
0.0351335
0.0531505
0.0722485
0.0887477
0.102092
0.113053
0.122467
0.130047
0.135855
0.139972
0.142627
0.143943
0.143973
0.142707
0.140076
0.135953
0.130114
0.122479
0.113004
0.101926
0.0884766
0.0719569
0.0529443
0.0350193
0.0225093
0.0161379
0.0144221
0.0171228
0.0182515
0.0284005
0.0463048
0.0718262
0.0983546
0.120953
0.137535
0.149637
0.158965
0.166182
0.171584
0.175392
0.177815
0.179
0.179014
0.177852
0.175436
0.171618
0.16619
0.158935
0.149569
0.137411
0.120685
0.0981027
0.0716473
0.0462411
0.0283125
0.0183306
0.0171176
0.019632
0.0205816
0.0338913
0.057824
0.0896947
0.121122
0.145995
0.163704
0.176055
0.184847
0.191226
0.195815
0.198978
0.200962
0.201921
0.201928
0.200981
0.199002
0.195836
0.19124
0.184855
0.176056
0.163682
0.14592
0.121001
0.0896839
0.0579036
0.0339112
0.0205933
0.0196246
0.0219231
0.0230681
0.039083
0.0687351
0.105374
0.139017
0.16423
0.181833
0.193733
0.201765
0.207247
0.21099
0.213477
0.214999
0.215723
0.215728
0.215011
0.213494
0.211012
0.207276
0.201807
0.193786
0.181887
0.164269
0.139066
0.105549
0.0689931
0.0391461
0.0230706
0.0219146
0.0240189
0.0253966
0.0440493
0.0789484
0.118782
0.15282
0.177468
0.194225
0.205229
0.212351
0.216955
0.21993
0.221816
0.22293
0.223449
0.223451
0.222936
0.221827
0.21995
0.216991
0.212408
0.205309
0.194323
0.177585
0.152997
0.119137
0.0793219
0.0441413
0.0254057
0.0240041
0.0258613
0.0274888
0.0485299
0.0877802
0.130195
0.163637
0.187162
0.202729
0.212644
0.218812
0.222602
0.224914
0.2263
0.227082
0.227435
0.227435
0.227084
0.226306
0.224931
0.222639
0.218875
0.212737
0.202851
0.187317
0.163848
0.130501
0.0881847
0.0486368
0.0275037
0.0258457
0.0274242
0.0293112
0.0524085
0.0949911
0.138694
0.171768
0.194195
0.208567
0.217416
0.222698
0.225779
0.227544
0.228534
0.22906
0.229287
0.229286
0.22906
0.228539
0.227561
0.225818
0.222766
0.217519
0.208707
0.194373
0.171999
0.139011
0.0953998
0.052522
0.0293305
0.0274085
0.0286918
0.0308271
0.055623
0.1007
0.145101
0.177727
0.199197
0.212536
0.220468
0.225006
0.227513
0.228852
0.229544
0.229882
0.230019
0.230019
0.229884
0.229552
0.228875
0.227559
0.225085
0.220584
0.212692
0.199394
0.177974
0.145421
0.101089
0.0557381
0.0308502
0.0286762
0.0296524
0.0320009
0.0581163
0.105002
0.149764
0.181938
0.202628
0.215154
0.222377
0.226349
0.228429
0.229461
0.229943
0.230152
0.230228
0.230229
0.230157
0.229957
0.229491
0.228485
0.226439
0.222506
0.215324
0.202837
0.18219
0.150068
0.105341
0.0582313
0.0320274
0.0296367
0.0302976
0.0328024
0.0598299
0.107934
0.152848
0.184651
0.204782
0.216747
0.223489
0.227084
0.228883
0.229718
0.230068
0.230196
0.230235
0.230237
0.230205
0.230087
0.229755
0.228949
0.227184
0.223629
0.216927
0.204998
0.1849
0.153134
0.10824
0.0599405
0.0328308
0.0302818
0.030622
0.0332079
0.0607009
0.109411
0.154386
0.185985
0.205824
0.217502
0.224
0.227405
0.229065
0.229802
0.230089
0.230179
0.2302
0.230203
0.23019
0.230112
0.229846
0.229137
0.227512
0.224146
0.217686
0.206041
0.18623
0.154661
0.109701
0.0608084
0.0332372
0.0306062
0.0306229
0.0332054
0.0606997
0.10941
0.154388
0.185986
0.205824
0.217499
0.223995
0.227397
0.229056
0.229791
0.230076
0.230165
0.230186
0.230189
0.230176
0.2301
0.229835
0.229128
0.227505
0.224141
0.217683
0.20604
0.186229
0.154657
0.109694
0.0608053
0.0332342
0.0306071
0.0303003
0.0327946
0.0598259
0.107932
0.152853
0.184656
0.204783
0.216741
0.223475
0.227062
0.228855
0.229684
0.230031
0.230157
0.230195
0.230198
0.230167
0.230052
0.229725
0.228923
0.227165
0.223616
0.21692
0.204995
0.184896
0.153122
0.108217
0.0599311
0.032822
0.0302847
0.0296568
0.0319883
0.0581095
0.105
0.149773
0.181948
0.20263
0.215146
0.222356
0.226317
0.228387
0.229411
0.229887
0.230092
0.230167
0.230168
0.230099
0.229904
0.229445
0.228446
0.226411
0.222488
0.215315
0.202834
0.182184
0.150049
0.105303
0.0582157
0.0320132
0.0296416
0.0286976
0.0308101
0.0556132
0.100706
0.145115
0.177741
0.199202
0.212528
0.220446
0.22497
0.227464
0.228793
0.229478
0.229811
0.229946
0.229947
0.229815
0.22949
0.22882
0.227514
0.225052
0.220565
0.212684
0.199393
0.177968
0.145394
0.101033
0.0557158
0.0308314
0.028683
0.0274311
0.0292908
0.0523958
0.0950013
0.138709
0.171782
0.194202
0.208564
0.217398
0.222665
0.225732
0.227486
0.228468
0.228988
0.229213
0.229213
0.228991
0.228476
0.227507
0.225774
0.222736
0.217503
0.208703
0.194374
0.17199
0.138973
0.0953259
0.0524931
0.029308
0.0274172
0.025869
0.0274664
0.0485151
0.0877925
0.130204
0.163646
0.187171
0.202733
0.212638
0.218793
0.22257
0.22487
0.226247
0.227024
0.227374
0.227375
0.227026
0.226255
0.224888
0.222606
0.218855
0.21273
0.202855
0.187319
0.163829
0.130445
0.0880943
0.048603
0.0274792
0.025856
0.0240269
0.0253754
0.0440338
0.0789581
0.118786
0.152818
0.177478
0.194242
0.205241
0.212352
0.216945
0.21991
0.221789
0.222898
0.223414
0.223416
0.222903
0.221798
0.219927
0.216976
0.212405
0.205318
0.194339
0.177591
0.152965
0.119033
0.0792174
0.0441059
0.0253829
0.0240155
0.0219279
0.0230525
0.0390629
0.0687285
0.105339
0.138995
0.164238
0.18186
0.193762
0.201788
0.207262
0.211
0.213484
0.215003
0.215726
0.215728
0.21501
0.213494
0.211014
0.207283
0.201823
0.193813
0.181919
0.164289
0.139044
0.105453
0.0688951
0.0391095
0.0230548
0.0219218
0.0196369
0.0205729
0.0338561
0.0577919
0.08964
0.121079
0.14599
0.163729
0.176088
0.18488
0.191261
0.195854
0.199023
0.201008
0.201966
0.201969
0.201017
0.199032
0.195859
0.191261
0.18488
0.176093
0.163726
0.145955
0.120993
0.0896207
0.0578346
0.0338689
0.0205823
0.0196325
0.0171328
0.0182972
0.0283164
0.0462538
0.071765
0.0982903
0.120906
0.137539
0.149656
0.158996
0.16623
0.171654
0.175477
0.177908
0.179091
0.179097
0.177921
0.175488
0.171652
0.166205
0.158947
0.149591
0.13745
0.120739
0.0981199
0.0716351
0.0461964
0.0282457
0.018362
0.0171314
0.0144325
0.0160985
0.0225262
0.0351044
0.0531157
0.0722095
0.0887192
0.102081
0.113082
0.122512
0.130121
0.135968
0.14011
0.142775
0.144086
0.144097
0.142802
0.140142
0.135988
0.130102
0.122452
0.112988
0.101928
0.0885145
0.0720036
0.052972
0.0350177
0.0224626
0.0161644
0.0144361
0.0115973
0.0136159
0.0177367
0.0251939
0.0351183
0.0458454
0.0556663
0.0644688
0.0723918
0.079534
0.0855624
0.0903649
0.0939212
0.0962641
0.0974322
0.0974506
0.0963146
0.0939934
0.0904447
0.0856314
0.0795735
0.0723862
0.0644109
0.0555565
0.045722
0.0349976
0.0251138
0.0177316
0.013685
0.0116067
0.00872538
0.0103703
0.013154
0.0165515
0.0216848
0.0271481
0.0323211
0.0369397
0.0411338
0.0448617
0.04804
0.0506233
0.0525781
0.0538802
0.054529
0.0545318
0.0538854
0.0525814
0.0506222
0.048032
0.044844
0.0411032
0.0368931
0.0322223
0.0270653
0.0216237
0.0165074
0.0131449
0.0104307
0.00873811
0.0051564
0.00165929
0.00754234
0.0111901
0.0148117
0.0178434
0.0204076
0.0227613
0.0248545
0.0266511
0.0281657
0.029393
0.0303217
0.0309361
0.0312397
0.0312376
0.0309294
0.0303097
0.0293766
0.028146
0.0266298
0.0248347
0.0227526
0.020464
0.0179097
0.0148689
0.0112302
0.00755764
0.00167879
0.0051678
0.00358051
0.00611607
0.00871244
0.0110674
0.0134189
0.0156419
0.0176926
0.0194618
0.0210072
0.0223334
0.0234386
0.0243248
0.0249922
0.0254479
0.025677
0.025677
0.025448
0.0249925
0.0243253
0.0234392
0.0223343
0.021009
0.0194645
0.0176981
0.0156505
0.0134303
0.0110814
0.00872715
0.00612968
0.00358833
0.0033649
0.00572611
0.00825006
0.0105818
0.0129276
0.0151466
0.0171832
0.018925
0.0204402
0.0217543
0.0228653
0.023761
0.0244364
0.0248854
0.025109
0.0251084
0.0248839
0.0244333
0.0237569
0.0228603
0.0217488
0.0204352
0.0189198
0.0171753
0.0151359
0.0129147
0.0105676
0.00823644
0.00571285
0.00335732
0.00487271
0.00250308
0.0106654
0.0158937
0.0209621
0.0254908
0.0293722
0.0323664
0.0346454
0.0363536
0.0376248
0.0385601
0.0392248
0.0396556
0.0398716
0.0398777
0.0396743
0.0392563
0.0386037
0.0376793
0.0364181
0.0347179
0.0324371
0.0293734
0.0254624
0.0209218
0.0158589
0.0106533
0.0024716
0.00486148
0.00828499
0.0130379
0.0173193
0.0210331
0.0240132
0.0271442
0.0302292
0.0331992
0.0360345
0.0385128
0.0406201
0.0423398
0.0436682
0.0445732
0.0450384
0.0450565
0.0446278
0.0437726
0.0424995
0.0408165
0.0387356
0.0362689
0.033416
0.0303729
0.0272221
0.0240517
0.0210574
0.0173105
0.0129549
0.00827067
0.0110598
0.0181651
0.0233104
0.0248493
0.0287258
0.0348545
0.0416226
0.0478913
0.0531686
0.0574363
0.0610642
0.0640741
0.0664135
0.0680128
0.0688239
0.0688249
0.0680161
0.0664227
0.0640925
0.0610934
0.0574867
0.0532511
0.0479958
0.041676
0.0348397
0.0287612
0.0248652
0.0232818
0.0181019
0.0110485
0.0138004
0.0221352
0.026428
0.0295579
0.0384565
0.0513981
0.0629536
0.0722922
0.079873
0.0861157
0.0912585
0.0955787
0.0991094
0.101572
0.102831
0.102842
0.101603
0.0991586
0.0956437
0.0913517
0.0862737
0.0801245
0.0726196
0.0632898
0.0514998
0.0384043
0.0295811
0.0264722
0.0220969
0.0137948
0.016431
0.0256201
0.0287182
0.0359086
0.0515279
0.0700022
0.0875946
0.101971
0.113421
0.12225
0.129066
0.134345
0.138313
0.140983
0.142333
0.142352
0.14104
0.138406
0.134476
0.12925
0.122516
0.113791
0.102446
0.0881988
0.0703718
0.0516439
0.0359916
0.02882
0.0256051
0.0164308
0.0189043
0.0283367
0.03116
0.0436858
0.0639604
0.0879415
0.111107
0.129535
0.142972
0.15277
0.159956
0.16522
0.168966
0.171394
0.172599
0.172622
0.171463
0.169079
0.165375
0.160158
0.153023
0.143281
0.129913
0.111568
0.0883741
0.0641439
0.0438044
0.0312849
0.0283854
0.0189058
0.0211882
0.0304194
0.0343389
0.0510989
0.0752801
0.104155
0.130557
0.150517
0.164817
0.174904
0.181992
0.18694
0.190301
0.192403
0.193425
0.19345
0.192475
0.190418
0.187096
0.182181
0.17512
0.165055
0.150779
0.130823
0.104362
0.0753455
0.0510709
0.0345201
0.0304689
0.0211904
0.0232281
0.0320713
0.0376754
0.0573648
0.0852616
0.118184
0.145662
0.165967
0.180289
0.19017
0.196896
0.201412
0.204357
0.206136
0.206984
0.207008
0.206206
0.204469
0.201558
0.197065
0.190349
0.180468
0.166135
0.145794
0.11822
0.0851642
0.0572632
0.0378473
0.0321049
0.023234
0.0250219
0.0334205
0.0409417
0.0632852
0.0950302
0.129819
0.157321
0.177258
0.191107
0.200479
0.206693
0.210729
0.213265
0.214747
0.215437
0.215458
0.214808
0.213362
0.210853
0.206832
0.200619
0.191235
0.177358
0.157371
0.129782
0.0948869
0.0631448
0.0410907
0.0334387
0.0250288
0.0265519
0.0345286
0.0439242
0.0685685
0.103601
0.138969
0.166135
0.185423
0.198592
0.207332
0.212985
0.216545
0.218706
0.219927
0.220482
0.220499
0.219976
0.218783
0.216641
0.213089
0.20743
0.198671
0.185466
0.166124
0.138879
0.103417
0.0684097
0.0440463
0.0345344
0.0265596
0.0277996
0.0354258
0.0464731
0.0729897
0.110504
0.145974
0.172623
0.191209
0.203683
0.211801
0.216928
0.220063
0.221903
0.222907
0.223352
0.223365
0.222943
0.221957
0.220128
0.216994
0.211856
0.203714
0.191202
0.172562
0.145841
0.110294
0.0728235
0.0465644
0.0354219
0.0278081
0.0287492
0.0361135
0.0484475
0.0763597
0.115639
0.151044
0.177185
0.195152
0.207028
0.214621
0.219313
0.222108
0.223697
0.224536
0.224897
0.224905
0.224559
0.22373
0.222145
0.219346
0.214637
0.207017
0.195103
0.177085
0.150883
0.115421
0.0762062
0.048485
0.0361025
0.0287585
0.0293885
0.036582
0.0497729
0.0785761
0.119011
0.154334
0.180093
0.197608
0.209053
0.216271
0.220658
0.223215
0.224633
0.225361
0.225666
0.225671
0.225375
0.224652
0.223232
0.220666
0.21626
0.209013
0.197531
0.179969
0.154157
0.118793
0.0784284
0.0497989
0.0365681
0.0293985
0.0297098
0.0368218
0.0504479
0.0796906
0.120685
0.155956
0.181514
0.198793
0.210013
0.217037
0.221266
0.223702
0.225033
0.225705
0.225982
0.225985
0.225714
0.225044
0.223709
0.221261
0.217012
0.209959
0.198702
0.18138
0.155776
0.12047
0.079545
0.0504705
0.0368067
0.0297201
0.0297091
0.036825
0.0504501
0.0796977
0.120695
0.155968
0.181527
0.198807
0.210027
0.21705
0.221278
0.223714
0.225044
0.225715
0.225991
0.225995
0.225724
0.225054
0.22372
0.221274
0.217026
0.209974
0.198718
0.181396
0.155793
0.120487
0.0795569
0.0504729
0.0368105
0.0297193
0.0293863
0.0365916
0.0497799
0.0785974
0.119042
0.154368
0.180131
0.19765
0.209095
0.216312
0.220696
0.22325
0.224665
0.22539
0.225694
0.225699
0.225404
0.224683
0.223267
0.220704
0.216302
0.209058
0.197577
0.180017
0.154208
0.118844
0.0784642
0.0498064
0.0365793
0.029396
0.0287456
0.0361296
0.0484613
0.0763951
0.115689
0.151102
0.17725
0.195222
0.207098
0.214689
0.219377
0.222166
0.223749
0.224585
0.224943
0.224951
0.224607
0.223782
0.222202
0.219408
0.214705
0.20709
0.195178
0.177163
0.150965
0.115506
0.0762666
0.048498
0.0361208
0.0287544
0.0277949
0.0354486
0.0465023
0.0730335
0.110571
0.146056
0.172717
0.191309
0.203783
0.211896
0.217016
0.220144
0.221976
0.222975
0.223416
0.223427
0.223008
0.222027
0.220204
0.217078
0.211947
0.203811
0.191304
0.172668
0.145953
0.110413
0.0729101
0.0465847
0.035447
0.0278026
0.0265464
0.0345577
0.0439702
0.0686216
0.103689
0.13908
0.166261
0.185554
0.19872
0.207453
0.213097
0.216647
0.218798
0.220012
0.220562
0.220577
0.220056
0.218868
0.216734
0.213191
0.207542
0.198791
0.185594
0.166259
0.139022
0.103569
0.0685202
0.0440741
0.0345654
0.0265529
0.0250159
0.0334551
0.0410056
0.0633459
0.0951482
0.129972
0.157488
0.177422
0.191262
0.200622
0.206825
0.210849
0.213375
0.214848
0.215533
0.215551
0.214902
0.213461
0.210959
0.206949
0.200748
0.191376
0.177512
0.15754
0.129967
0.0950762
0.0632723
0.0411253
0.0334738
0.0250212
0.0232221
0.0321103
0.0377556
0.0574325
0.0854388
0.118401
0.145875
0.166164
0.180468
0.190331
0.197044
0.201548
0.204483
0.206253
0.207095
0.207116
0.206313
0.204579
0.201674
0.197191
0.190488
0.180624
0.16631
0.145997
0.118466
0.0854268
0.0573963
0.0378876
0.0321416
0.023226
0.021184
0.0304614
0.0344299
0.0511609
0.0754499
0.104413
0.130819
0.150751
0.165018
0.175082
0.182154
0.187089
0.190441
0.192536
0.193554
0.193575
0.192597
0.19054
0.187221
0.182315
0.175265
0.165219
0.150968
0.13104
0.104599
0.0755401
0.0511717
0.0345663
0.0305052
0.021185
0.0189002
0.0283775
0.0312325
0.0437413
0.0641187
0.0882829
0.111448
0.129808
0.143197
0.152964
0.16013
0.165379
0.16912
0.171547
0.17275
0.17277
0.171606
0.169217
0.165512
0.160302
0.153174
0.143448
0.130109
0.111809
0.0886264
0.0642725
0.0438206
0.0313341
0.0284236
0.0189006
0.0164221
0.0256135
0.0287845
0.0359515
0.0516062
0.0702399
0.0879564
0.10226
0.113661
0.122448
0.129238
0.134502
0.138474
0.141153
0.142502
0.14252
0.14121
0.138566
0.13463
0.129414
0.12268
0.113959
0.102627
0.0884183
0.0705185
0.0516905
0.0360012
0.0288621
0.0256083
0.0164207
0.01379
0.0221191
0.0264674
0.0295782
0.0384613
0.0514588
0.0631194
0.0724733
0.080029
0.0862396
0.0913645
0.0956646
0.0992186
0.101699
0.10297
0.102984
0.10174
0.0992823
0.0957456
0.0914954
0.0864179
0.0802594
0.0727364
0.0633762
0.0515362
0.0384197
0.0295834
0.0264965
0.0220937
0.013785
0.0110488
0.0181375
0.0233005
0.0248759
0.0287595
0.0348772
0.0416665
0.0479523
0.0532219
0.0574819
0.0611096
0.0641255
0.0664738
0.0680823
0.0689023
0.0689104
0.0681061
0.0665118
0.0641764
0.0611758
0.0575646
0.0533171
0.0480298
0.0416946
0.0348586
0.0287782
0.0248799
0.0232769
0.0180922
0.0110401
0.00827472
0.0130035
0.0173198
0.0210701
0.0240674
0.0272201
0.0303287
0.0333274
0.0361695
0.0386433
0.0407435
0.0424553
0.0437635
0.0446537
0.0451115
0.045128
0.0447026
0.0438432
0.0425636
0.0408771
0.0387967
0.0363328
0.03348
0.0304426
0.0272834
0.0241004
0.0210907
0.0173166
0.0129471
0.00826458
0.00486549
0.00249345
0.0106651
0.015887
0.0209503
0.0254821
0.0293793
0.0324228
0.0347088
0.0364162
0.0376867
0.0386221
0.0392864
0.0397187
0.0399348
0.0399401
0.0397344
0.0393123
0.0386576
0.0377314
0.0364694
0.0347689
0.0324815
0.0293863
0.0254688
0.0209297
0.0158698
0.0106622
0.00247113
0.00485744
0.00336032
0.00571814
0.00824046
0.0105708
0.012916
0.015135
0.0171723
0.0189151
0.0204303
0.0217474
0.0228585
0.0237541
0.024429
0.0248752
0.0250982
0.0250975
0.0248731
0.0244255
0.0237494
0.0228528
0.0217408
0.0204227
0.0189071
0.0171625
0.0151237
0.012904
0.0105588
0.00822973
0.0057084
0.00335474
0.00333434
0.0056536
0.00813116
0.0104358
0.0127321
0.0148981
0.0168887
0.0185988
0.0200888
0.0213763
0.0224571
0.0233264
0.0239812
0.024419
0.0246386
0.0246394
0.0244213
0.0239849
0.0233315
0.0224636
0.0213845
0.0200989
0.018611
0.0169037
0.0149156
0.0127508
0.0104543
0.00814656
0.00566774
0.00334243
0.00485822
0.00307006
0.0120276
0.0184616
0.0245275
0.0299473
0.0346822
0.0386626
0.0418989
0.0444983
0.0465498
0.0481236
0.0492701
0.05002
0.0503919
0.0503945
0.0500278
0.0492834
0.0481427
0.0465741
0.0445288
0.0419367
0.0387087
0.0347498
0.0300156
0.0245805
0.0184886
0.0120294
0.00311161
0.00486927
0.00820082
0.014285
0.0195798
0.0252318
0.0301454
0.0347494
0.0389473
0.0425455
0.0453015
0.0474034
0.0489709
0.0501165
0.0509279
0.0514501
0.0517075
0.0517105
0.0514602
0.0509503
0.0501555
0.0490197
0.0474564
0.0453555
0.042589
0.0389939
0.0347588
0.0301044
0.0251708
0.0195537
0.0143191
0.00821251
0.0109528
0.0205849
0.0275205
0.0309076
0.033945
0.0370989
0.0402229
0.0433835
0.0466312
0.0499512
0.0530303
0.0556859
0.0577916
0.0592428
0.0599786
0.0599682
0.0592127
0.0577464
0.0556331
0.0529794
0.0499256
0.0466806
0.0434376
0.0402772
0.037145
0.0338839
0.0308415
0.02753
0.0206443
0.0109672
0.0136264
0.0257728
0.0326991
0.0354359
0.03796
0.0436174
0.0513834
0.0586341
0.06511
0.0709434
0.0761413
0.0805275
0.0838661
0.0860573
0.0871454
0.0871362
0.0860309
0.0838279
0.0804933
0.0761172
0.0709499
0.0651594
0.0587156
0.0515241
0.0439602
0.0380981
0.0354414
0.0327588
0.0258514
0.0136375
0.0161885
0.0304231
0.0365422
0.0386627
0.0435702
0.0554513
0.0681086
0.0794806
0.0889932
0.0969644
0.1037
0.109249
0.113446
0.116225
0.117597
0.117578
0.116168
0.113349
0.109112
0.103526
0.0967731
0.0887832
0.0792744
0.0679644
0.0555838
0.0437751
0.0387234
0.0366423
0.0304994
0.0161952
0.018583
0.034456
0.0394319
0.0413638
0.0517946
0.0682195
0.0851628
0.101331
0.115365
0.126406
0.134921
0.141284
0.145809
0.148733
0.150162
0.15014
0.148666
0.145691
0.141112
0.13469
0.12614
0.115082
0.10105
0.0849159
0.0681467
0.0518868
0.0414193
0.0395351
0.0345022
0.0185851
0.0207842
0.0379103
0.0414042
0.0447229
0.0609189
0.0809128
0.102276
0.122874
0.139123
0.15108
0.159847
0.166189
0.170597
0.173387
0.174735
0.174717
0.173332
0.1705
0.166049
0.159668
0.150878
0.138904
0.122613
0.102078
0.0808635
0.0609827
0.0447939
0.0414595
0.0379382
0.020783
0.0227662
0.0408514
0.0430106
0.0494037
0.0697362
0.0926177
0.118186
0.140397
0.157157
0.169302
0.177974
0.184076
0.188218
0.190791
0.19202
0.192008
0.190754
0.188155
0.183986
0.177861
0.169175
0.157019
0.140251
0.11807
0.0926332
0.0698204
0.0493423
0.0430389
0.0408688
0.022763
0.0245061
0.0432778
0.0444024
0.0542396
0.0772568
0.103296
0.131436
0.153807
0.170415
0.1823
0.190652
0.19641
0.200239
0.202575
0.20368
0.203673
0.202556
0.200206
0.196364
0.190595
0.182236
0.170346
0.153737
0.13139
0.103331
0.0773297
0.0541419
0.0444235
0.0432935
0.0245018
0.025986
0.045234
0.0456354
0.0587997
0.0837716
0.11289
0.141656
0.163848
0.180004
0.191426
0.199346
0.204716
0.208222
0.210327
0.211311
0.211309
0.21032
0.208211
0.204701
0.199329
0.19141
0.17999
0.163843
0.141681
0.11297
0.0838614
0.0587111
0.0456515
0.0452467
0.0259806
0.0271901
0.0467556
0.0466959
0.0624746
0.0890029
0.120525
0.149369
0.171166
0.186792
0.197707
0.205178
0.210167
0.21337
0.215264
0.21614
0.21614
0.215264
0.213373
0.210172
0.205189
0.197726
0.186821
0.171213
0.14945
0.120654
0.0891394
0.0624655
0.0467097
0.0467647
0.0271836
0.0281057
0.0478799
0.0476016
0.0653184
0.0929033
0.126102
0.154868
0.176254
0.191401
0.201867
0.208943
0.213605
0.216553
0.218272
0.219059
0.219061
0.218276
0.216563
0.213622
0.208971
0.201908
0.191459
0.176336
0.154985
0.126262
0.0930658
0.0653326
0.0476201
0.0478842
0.0280981
0.0287226
0.0486285
0.0483883