/*--------------------------------*- C++ -*----------------------------------*\
| =========                 |                                                 |
| \\      /  F ield         | OpenFOAM: The Open Source CFD Toolbox           |
|  \\    /   O peration     | Version:  2312                                  |
|   \\  /    A nd           | Website:  www.openfoam.com                      |
|    \\/     M anipulation  |                                                 |
\*---------------------------------------------------------------------------*/
FoamFile
{
    version     2.0;
    format      ascii;
    arch        "LSB;label=32;scalar=64";
    class       volScalarField;
    location    "800";
    object      epsilon;
}
// * * * * * * * * * * * * * * * * * * * * * * * * * * * * * * * * * * * * * //

dimensions      [0 2 -3 0 0 0 0];

internalField   nonuniform List<scalar> 
27000
(
0.00152123
0.000224182
0.000110937
7.03733e-05
5.23743e-05
4.21044e-05
3.53922e-05
3.07378e-05
2.73886e-05
2.49363e-05
2.31332e-05
2.18245e-05
2.09119e-05
2.03298e-05
2.00442e-05
2.00462e-05
2.03356e-05
2.09201e-05
2.18358e-05
2.31474e-05
2.49532e-05
2.74074e-05
3.07567e-05
3.54076e-05
4.21085e-05
5.23479e-05
7.02698e-05
0.000110636
0.000223355
0.00151594
0.000150191
3.23282e-05
1.38452e-05
9.30325e-06
7.20897e-06
5.99481e-06
5.16766e-06
4.56262e-06
4.10877e-06
3.7686e-06
3.51593e-06
3.33174e-06
3.20291e-06
3.12067e-06
3.08014e-06
3.07984e-06
3.11968e-06
3.20093e-06
3.32856e-06
3.51118e-06
3.76172e-06
4.09905e-06
4.54934e-06
5.1502e-06
5.97235e-06
7.1782e-06
9.25621e-06
1.37615e-05
3.21599e-05
0.000149758
9.98357e-05
1.52067e-05
5.11022e-06
2.57019e-06
1.92284e-06
1.63368e-06
1.45167e-06
1.32128e-06
1.22325e-06
1.14888e-06
1.09299e-06
1.05192e-06
1.02298e-06
1.00441e-06
9.95161e-07
9.94823e-07
1.00337e-06
1.02114e-06
1.04919e-06
1.08931e-06
1.14419e-06
1.2176e-06
1.31496e-06
1.44536e-06
1.62773e-06
1.91644e-06
2.55731e-06
5.06332e-06
1.50874e-05
9.96053e-05
6.6607e-05
1.02346e-05
2.8377e-06
1.40045e-06
1.00448e-06
8.59859e-07
7.83915e-07
7.33545e-07
6.96906e-07
6.69561e-07
6.48976e-07
6.3384e-07
6.23183e-07
6.16341e-07
6.12902e-07
6.12687e-07
6.15693e-07
6.22102e-07
6.32346e-07
6.47132e-07
6.67493e-07
6.94867e-07
7.3188e-07
7.83009e-07
8.5978e-07
1.00425e-06
1.39591e-06
2.81653e-06
1.01712e-05
6.65507e-05
4.92785e-05
7.2457e-06
2.04757e-06
1.04671e-06
7.56436e-07
6.4659e-07
5.95385e-07
5.65392e-07
5.4538e-07
5.32002e-07
5.21924e-07
5.14538e-07
5.09357e-07
5.06041e-07
5.04369e-07
5.04236e-07
5.05651e-07
5.08739e-07
5.13753e-07
5.21076e-07
5.31262e-07
5.45017e-07
5.65445e-07
5.95904e-07
6.47394e-07
7.56616e-07
1.04386e-06
2.03564e-06
7.21453e-06
4.92896e-05
3.87288e-05
5.61282e-06
1.63016e-06
8.79908e-07
6.5415e-07
5.64783e-07
5.24999e-07
5.03651e-07
4.90605e-07
4.82096e-07
4.76185e-07
4.71999e-07
4.69114e-07
4.67285e-07
4.66367e-07
4.66293e-07
4.67075e-07
4.68804e-07
4.71654e-07
4.75899e-07
4.81987e-07
4.90771e-07
5.04073e-07
5.25488e-07
5.65196e-07
6.53833e-07
8.77312e-07
1.62202e-06
5.59634e-06
3.8764e-05
3.17398e-05
4.60061e-06
1.38701e-06
7.8188e-07
5.98653e-07
5.26248e-07
4.93507e-07
4.77041e-07
4.67796e-07
4.62113e-07
4.58369e-07
4.55814e-07
4.54089e-07
4.53008e-07
4.52471e-07
4.52438e-07
4.52919e-07
4.53974e-07
4.55724e-07
4.58366e-07
4.62257e-07
4.68107e-07
4.77458e-07
4.93876e-07
5.26299e-07
5.97915e-07
7.79252e-07
1.38057e-06
4.59186e-06
3.17827e-05
2.68681e-05
3.91836e-06
1.22831e-06
7.18404e-07
5.63041e-07
5.03706e-07
4.77134e-07
4.64321e-07
4.57626e-07
4.53784e-07
4.51376e-07
4.49778e-07
4.4871e-07
4.48043e-07
4.47716e-07
4.47708e-07
4.48024e-07
4.48702e-07
4.49812e-07
4.51484e-07
4.53982e-07
4.57897e-07
4.6459e-07
4.77259e-07
5.03482e-07
5.62229e-07
7.16007e-07
1.22348e-06
3.91439e-06
2.69125e-05
2.32997e-05
3.42815e-06
1.11492e-06
6.74167e-07
5.391e-07
4.89269e-07
4.67597e-07
4.57633e-07
4.52784e-07
4.50208e-07
4.4868e-07
4.47685e-07
4.47017e-07
4.46597e-07
4.46392e-07
4.46396e-07
4.46611e-07
4.47054e-07
4.47758e-07
4.48798e-07
4.50364e-07
4.52943e-07
4.57723e-07
4.67508e-07
4.88878e-07
5.38358e-07
6.72178e-07
1.11168e-06
3.42834e-06
2.33518e-05
2.06857e-05
3.06848e-06
1.03074e-06
6.42178e-07
5.24569e-07
4.80195e-07
4.61814e-07
4.53871e-07
4.50314e-07
4.48596e-07
4.47646e-07
4.47042e-07
4.46629e-07
4.46362e-07
4.46233e-07
4.4624e-07
4.46387e-07
4.46673e-07
4.47107e-07
4.47729e-07
4.48675e-07
4.50351e-07
4.53802e-07
4.6155e-07
4.79632e-07
5.23571e-07
6.40557e-07
1.02872e-06
3.07097e-06
2.07343e-05
1.87736e-05
2.80455e-06
9.67835e-07
6.18028e-07
5.13092e-07
4.73926e-07
4.58127e-07
4.51644e-07
4.4897e-07
4.47813e-07
4.47235e-07
4.46879e-07
4.4663e-07
4.46464e-07
4.46381e-07
4.46388e-07
4.46484e-07
4.46663e-07
4.46918e-07
4.47267e-07
4.47816e-07
4.48905e-07
4.5146e-07
4.57758e-07
4.73304e-07
5.12161e-07
6.1681e-07
9.66698e-07
2.8082e-06
1.88181e-05
1.73943e-05
2.6136e-06
9.21683e-07
6.00205e-07
5.04588e-07
4.6949e-07
4.55698e-07
4.5028e-07
4.48203e-07
4.47404e-07
4.47055e-07
4.46854e-07
4.46709e-07
4.46608e-07
4.46557e-07
4.46561e-07
4.4662e-07
4.46724e-07
4.46862e-07
4.47041e-07
4.47345e-07
4.48068e-07
4.50029e-07
4.55291e-07
4.68893e-07
5.03804e-07
5.99336e-07
9.21144e-07
2.61787e-06
1.74355e-05
1.64377e-05
2.48082e-06
8.89232e-07
5.8753e-07
4.98613e-07
4.66463e-07
4.54124e-07
4.49448e-07
4.47762e-07
4.47182e-07
4.46969e-07
4.46859e-07
4.46779e-07
4.46719e-07
4.46687e-07
4.46688e-07
4.46722e-07
4.46777e-07
4.46842e-07
4.46921e-07
4.47082e-07
4.47586e-07
4.49169e-07
4.53719e-07
4.65926e-07
4.97985e-07
5.87004e-07
8.89097e-07
2.48542e-06
1.64766e-05
1.58336e-05
2.39679e-06
8.68514e-07
5.79267e-07
4.94791e-07
4.64577e-07
4.53181e-07
4.48974e-07
4.47524e-07
4.47068e-07
4.46929e-07
4.4687e-07
4.46825e-07
4.46789e-07
4.46768e-07
4.46768e-07
4.46785e-07
4.46812e-07
4.46836e-07
4.4686e-07
4.46947e-07
4.4733e-07
4.4869e-07
4.52796e-07
4.64098e-07
4.94274e-07
5.7892e-07
8.68604e-07
2.40153e-06
1.5871e-05
1.55402e-05
2.35587e-06
8.58379e-07
5.75208e-07
4.92926e-07
4.63674e-07
4.52744e-07
4.48765e-07
4.47425e-07
4.47026e-07
4.46918e-07
4.4688e-07
4.46851e-07
4.46825e-07
4.46809e-07
4.46808e-07
4.46819e-07
4.46833e-07
4.4684e-07
4.46842e-07
4.46898e-07
4.4723e-07
4.48488e-07
4.52379e-07
4.63233e-07
4.92469e-07
5.74935e-07
8.58569e-07
2.36065e-06
1.55767e-05
1.55378e-05
2.35542e-06
8.58264e-07
5.75172e-07
4.92915e-07
4.63675e-07
4.52751e-07
4.48776e-07
4.47438e-07
4.47039e-07
4.4693e-07
4.46891e-07
4.4686e-07
4.46833e-07
4.46816e-07
4.46815e-07
4.46827e-07
4.46843e-07
4.46853e-07
4.46858e-07
4.46917e-07
4.47252e-07
4.48512e-07
4.52403e-07
4.63254e-07
4.92478e-07
5.74913e-07
8.58459e-07
2.36015e-06
1.5574e-05
1.58265e-05
2.39541e-06
8.68159e-07
5.79154e-07
4.94754e-07
4.64578e-07
4.53204e-07
4.49008e-07
4.47562e-07
4.47107e-07
4.46964e-07
4.469e-07
4.46851e-07
4.46811e-07
4.46789e-07
4.46789e-07
4.4681e-07
4.46842e-07
4.46874e-07
4.46907e-07
4.47003e-07
4.47397e-07
4.48764e-07
4.5287e-07
4.6416e-07
4.94301e-07
5.78856e-07
8.68274e-07
2.40002e-06
1.58629e-05
1.64258e-05
2.47844e-06
8.88602e-07
5.87323e-07
4.98539e-07
4.66458e-07
4.54158e-07
4.49502e-07
4.47824e-07
4.47244e-07
4.47025e-07
4.46907e-07
4.46819e-07
4.46753e-07
4.46719e-07
4.46721e-07
4.4676e-07
4.46824e-07
4.46901e-07
4.46994e-07
4.47172e-07
4.47693e-07
4.49288e-07
4.53842e-07
4.66031e-07
4.98032e-07
5.86899e-07
8.88538e-07
2.48283e-06
1.64627e-05
1.73774e-05
2.61008e-06
9.20709e-07
5.99851e-07
5.04458e-07
4.6947e-07
4.5574e-07
4.50352e-07
4.48286e-07
4.47486e-07
4.47128e-07
4.46915e-07
4.46759e-07
4.4665e-07
4.46595e-07
4.46601e-07
4.46667e-07
4.46782e-07
4.46936e-07
4.47135e-07
4.47461e-07
4.48206e-07
4.50187e-07
4.55455e-07
4.69038e-07
5.03872e-07
5.99191e-07
9.20338e-07
2.61407e-06
1.7415e-05
1.87513e-05
2.79967e-06
9.66422e-07
6.17493e-07
5.12887e-07
4.73883e-07
4.58169e-07
4.51729e-07
4.49068e-07
4.47908e-07
4.47317e-07
4.46944e-07
4.46681e-07
4.46504e-07
4.46419e-07
4.46428e-07
4.46533e-07
4.46725e-07
4.46999e-07
4.47371e-07
4.47944e-07
4.49061e-07
4.51639e-07
4.57948e-07
4.73475e-07
5.12241e-07
6.16617e-07
9.65613e-07
2.80299e-06
1.879e-05
2.06575e-05
3.06193e-06
1.02875e-06
6.41406e-07
5.24275e-07
4.80119e-07
4.61849e-07
4.53958e-07
4.50416e-07
4.4869e-07
4.47722e-07
4.47096e-07
4.46667e-07
4.4639e-07
4.46258e-07
4.46271e-07
4.46428e-07
4.4673e-07
4.47183e-07
4.47827e-07
4.48798e-07
4.50501e-07
4.53975e-07
4.61734e-07
4.79793e-07
5.23627e-07
6.40288e-07
1.02731e-06
3.06412e-06
2.06972e-05
2.32652e-05
3.41959e-06
1.11218e-06
6.73094e-07
5.3875e-07
4.89144e-07
4.67605e-07
4.57702e-07
4.52866e-07
4.50276e-07
4.48723e-07
4.47704e-07
4.47019e-07
4.46591e-07
4.46388e-07
4.46401e-07
4.46631e-07
4.47091e-07
4.47812e-07
4.48871e-07
4.50457e-07
4.53055e-07
4.57851e-07
4.67637e-07
4.88967e-07
5.38305e-07
6.71755e-07
1.10986e-06
3.41974e-06
2.33045e-05
2.6832e-05
3.90733e-06
1.22446e-06
7.16865e-07
5.62432e-07
5.03469e-07
4.77077e-07
4.64334e-07
4.57646e-07
4.53781e-07
4.51342e-07
4.49719e-07
4.48639e-07
4.47972e-07
4.47655e-07
4.47662e-07
4.47998e-07
4.48694e-07
4.49819e-07
4.51502e-07
4.54008e-07
4.57927e-07
4.64619e-07
4.77271e-07
5.03424e-07
5.61969e-07
7.1526e-07
1.22099e-06
3.90402e-06
2.68624e-05
3.16946e-05
4.5851e-06
1.38152e-06
7.79706e-07
5.97713e-07
5.25882e-07
4.93321e-07
4.76922e-07
4.67675e-07
4.61957e-07
4.58179e-07
4.55607e-07
4.53883e-07
4.52817e-07
4.52303e-07
4.52297e-07
4.52804e-07
4.53881e-07
4.55642e-07
4.58284e-07
4.62164e-07
4.67995e-07
4.77315e-07
4.93683e-07
5.26e-07
5.97296e-07
7.7791e-07
1.37675e-06
4.57759e-06
3.17195e-05
3.86685e-05
5.59068e-06
1.62245e-06
8.7686e-07
6.52733e-07
5.6405e-07
5.24516e-07
5.03248e-07
4.90196e-07
4.81642e-07
4.75707e-07
4.71529e-07
4.68673e-07
4.66883e-07
4.66008e-07
4.65977e-07
4.66796e-07
4.6855e-07
4.71405e-07
4.75633e-07
4.81685e-07
4.90414e-07
5.03637e-07
5.24985e-07
5.644e-07
6.52557e-07
8.74979e-07
1.61614e-06
5.57636e-06
3.86821e-05
4.91928e-05
7.21294e-06
2.03577e-06
1.042e-06
7.54126e-07
6.45188e-07
5.94289e-07
5.64418e-07
5.44412e-07
5.30966e-07
5.20918e-07
5.13602e-07
5.08501e-07
5.05262e-07
5.03658e-07
5.03585e-07
5.05048e-07
5.08164e-07
5.13175e-07
5.20456e-07
5.30564e-07
5.44227e-07
5.64481e-07
5.94648e-07
6.457e-07
7.54142e-07
1.03967e-06
2.02606e-06
7.1859e-06
4.9181e-05
6.64726e-05
1.01828e-05
2.81742e-06
1.39221e-06
1.00021e-06
8.56794e-07
7.81195e-07
7.30954e-07
6.94455e-07
6.67294e-07
6.46924e-07
6.31989e-07
6.21504e-07
6.14787e-07
6.11443e-07
6.11302e-07
6.14363e-07
6.208e-07
6.31016e-07
6.45708e-07
6.65898e-07
6.93018e-07
7.29681e-07
7.80335e-07
8.5637e-07
9.99515e-07
1.388e-06
2.7996e-06
1.01289e-05
6.63995e-05
9.9611e-05
1.51302e-05
5.07064e-06
2.55328e-06
1.91213e-06
1.62503e-06
1.44397e-06
1.3143e-06
1.21709e-06
1.14349e-06
1.08825e-06
1.04768e-06
1.01911e-06
1.00072e-06
9.91573e-07
9.91298e-07
9.99882e-07
1.01767e-06
1.04557e-06
1.08541e-06
1.13985e-06
1.21261e-06
1.30913e-06
1.43848e-06
1.61933e-06
1.90558e-06
2.54106e-06
5.0301e-06
1.50323e-05
9.94004e-05
0.000149819
3.22232e-05
1.37823e-05
9.25979e-06
7.1757e-06
5.96781e-06
5.1448e-06
4.54316e-06
4.09207e-06
3.75404e-06
3.50291e-06
3.31975e-06
3.1915e-06
3.10892e-06
3.0682e-06
3.06777e-06
3.10755e-06
3.18902e-06
3.31597e-06
3.49749e-06
3.74651e-06
4.08181e-06
4.52951e-06
5.12701e-06
5.94498e-06
7.1452e-06
9.21505e-06
1.37062e-05
3.20766e-05
0.000149399
0.00151774
0.00022363
0.000110696
7.02465e-05
5.22928e-05
4.20448e-05
3.53446e-05
3.06975e-05
2.73528e-05
2.4903e-05
2.31012e-05
2.1793e-05
2.08794e-05
2.02899e-05
2.0002e-05
2.00026e-05
2.02917e-05
2.08818e-05
2.1796e-05
2.31046e-05
2.49061e-05
2.73547e-05
3.06962e-05
3.53367e-05
4.20236e-05
5.22428e-05
7.01306e-05
0.000110412
0.0002229
0.00151311
0.0011336
0.000170104
8.9084e-05
5.85301e-05
4.51579e-05
3.7389e-05
3.22625e-05
2.86915e-05
2.60978e-05
2.41645e-05
2.26981e-05
2.16205e-05
2.08638e-05
2.03901e-05
2.0167e-05
2.01657e-05
2.03866e-05
2.08608e-05
2.16162e-05
2.2692e-05
2.41554e-05
2.60821e-05
2.86757e-05
3.22652e-05
3.74294e-05
4.52672e-05
5.87834e-05
8.96526e-05
0.000171627
0.0011435
0.000108487
3.14516e-05
2.05779e-05
1.44751e-05
1.15697e-05
9.68199e-06
8.28455e-06
7.25727e-06
6.4802e-06
5.893e-06
5.45283e-06
5.13155e-06
4.90844e-06
4.76869e-06
4.70238e-06
4.7034e-06
4.77204e-06
4.91503e-06
5.14212e-06
5.46822e-06
5.9148e-06
6.51173e-06
7.30573e-06
8.36362e-06
9.77909e-06
1.16849e-05
1.46158e-05
2.07524e-05
3.19561e-05
0.000109429
8.4569e-05
2.25723e-05
1.14213e-05
5.82222e-06
3.74374e-06
2.90407e-06
2.43887e-06
2.1168e-06
1.87901e-06
1.70174e-06
1.57099e-06
1.47697e-06
1.41292e-06
1.37313e-06
1.35434e-06
1.35501e-06
1.37527e-06
1.4174e-06
1.4846e-06
1.58192e-06
1.71671e-06
1.89897e-06
2.1423e-06
2.46733e-06
2.92876e-06
3.76203e-06
5.84674e-06
1.15173e-05
2.28441e-05
8.5057e-05
5.77531e-05
1.64508e-05
6.56769e-06
2.79055e-06
1.55129e-06
1.14939e-06
9.84912e-07
8.89653e-07
8.21305e-07
7.69186e-07
7.29633e-07
7.00413e-07
6.8001e-07
6.67171e-07
6.61107e-07
6.61443e-07
6.68213e-07
6.81877e-07
7.03219e-07
7.33418e-07
7.73952e-07
8.26762e-07
8.9488e-07
9.87911e-07
1.14785e-06
1.54535e-06
2.79423e-06
6.63308e-06
1.66312e-05
5.79048e-05
4.44317e-05
1.16919e-05
4.14938e-06
1.68141e-06
9.43102e-07
6.9656e-07
6.02774e-07
5.58186e-07
5.30287e-07
5.08736e-07
4.92676e-07
4.80897e-07
4.72826e-07
4.67741e-07
4.65369e-07
4.65611e-07
4.68471e-07
4.7405e-07
4.82585e-07
4.94722e-07
5.1091e-07
5.32034e-07
5.58964e-07
6.01921e-07
6.93634e-07
9.39408e-07
1.68478e-06
4.19112e-06
1.17942e-05
4.44413e-05
3.62773e-05
8.82233e-06
2.87033e-06
1.20751e-06
7.17903e-07
5.43428e-07
4.69847e-07
4.38137e-07
4.22649e-07
4.12964e-07
4.06044e-07
4.00972e-07
3.9742e-07
3.95176e-07
3.94144e-07
3.94289e-07
3.95605e-07
3.98102e-07
4.01832e-07
4.06937e-07
4.13657e-07
4.22828e-07
4.37591e-07
4.68845e-07
5.41985e-07
7.17505e-07
1.21327e-06
2.90204e-06
8.88754e-06
3.62392e-05
3.07443e-05
7.01676e-06
2.16186e-06
9.60883e-07
6.0907e-07
4.73404e-07
4.15627e-07
3.89959e-07
3.78054e-07
3.71965e-07
3.68371e-07
3.66011e-07
3.64428e-07
3.63447e-07
3.63005e-07
3.63082e-07
3.63665e-07
3.64748e-07
3.66357e-07
3.68624e-07
3.71974e-07
3.77696e-07
3.89254e-07
4.14862e-07
4.73275e-07
6.10533e-07
9.6738e-07
2.18527e-06
7.04673e-06
3.07056e-05
2.68171e-05
5.85684e-06
1.7493e-06
8.17766e-07
5.45689e-07
4.37259e-07
3.90018e-07
3.68061e-07
3.57808e-07
3.53009e-07
3.50676e-07
3.49452e-07
3.48761e-07
3.48375e-07
3.48212e-07
3.48243e-07
3.48458e-07
3.48861e-07
3.49513e-07
3.50624e-07
3.52779e-07
3.57398e-07
3.67603e-07
3.89839e-07
4.37912e-07
5.47939e-07
8.23391e-07
1.76508e-06
5.87263e-06
2.67826e-05
2.40846e-05
5.08168e-06
1.4964e-06
7.29397e-07
5.05202e-07
4.1609e-07
3.7622e-07
3.57208e-07
3.48161e-07
3.44007e-07
3.42188e-07
3.41425e-07
3.41115e-07
3.40992e-07
3.40952e-07
3.40957e-07
3.40999e-07
3.411e-07
3.41356e-07
3.42033e-07
3.43764e-07
3.47892e-07
3.57077e-07
3.76507e-07
4.17161e-07
5.07313e-07
7.33691e-07
1.50676e-06
5.08824e-06
2.40358e-05
2.20722e-05
4.54529e-06
1.33239e-06
6.71297e-07
4.76527e-07
4.01856e-07
3.67815e-07
3.51332e-07
3.43371e-07
3.39695e-07
3.3813e-07
3.37546e-07
3.37373e-07
3.37346e-07
3.3735e-07
3.37342e-07
3.37318e-07
3.37313e-07
3.37441e-07
3.37981e-07
3.39533e-07
3.43281e-07
3.51467e-07
3.68393e-07
4.03139e-07
4.78791e-07
6.74494e-07
1.33914e-06
4.54683e-06
2.20287e-05
2.0574e-05
4.1661e-06
1.22183e-06
6.31875e-07
4.58346e-07
3.922e-07
3.62304e-07
3.4786e-07
3.40857e-07
3.37598e-07
3.36203e-07
3.35687e-07
3.35547e-07
3.35538e-07
3.35548e-07
3.35536e-07
3.35501e-07
3.35483e-07
3.35597e-07
3.36104e-07
3.37536e-07
3.40915e-07
3.48161e-07
3.63006e-07
3.93467e-07
4.60288e-07
6.34197e-07
1.22625e-06
4.16511e-06
2.05358e-05
1.94752e-05
3.89856e-06
1.14623e-06
6.04567e-07
4.45806e-07
3.85512e-07
3.58548e-07
3.45657e-07
3.39442e-07
3.36541e-07
3.3528e-07
3.34796e-07
3.34652e-07
3.34629e-07
3.34632e-07
3.34621e-07
3.34598e-07
3.34602e-07
3.34739e-07
3.35239e-07
3.36563e-07
3.39597e-07
3.4604e-07
3.59265e-07
3.8666e-07
4.47413e-07
6.06312e-07
1.14919e-06
3.8962e-06
1.94409e-05
1.87031e-05
3.71564e-06
1.09549e-06
5.85907e-07
4.3717e-07
3.80899e-07
3.55983e-07
3.44216e-07
3.38597e-07
3.35978e-07
3.34824e-07
3.34361e-07
3.34204e-07
3.34163e-07
3.34155e-07
3.34148e-07
3.34143e-07
3.34176e-07
3.34339e-07
3.34833e-07
3.36059e-07
3.38807e-07
3.44627e-07
3.56671e-07
3.81928e-07
4.38551e-07
5.87414e-07
1.09756e-06
3.71253e-06
1.86713e-05
1.82116e-05
3.60119e-06
1.06401e-06
5.74022e-07
4.31656e-07
3.77952e-07
3.54351e-07
3.43316e-07
3.38095e-07
3.35671e-07
3.34593e-07
3.34144e-07
3.33976e-07
3.33921e-07
3.33905e-07
3.33901e-07
3.33911e-07
3.33967e-07
3.34149e-07
3.34635e-07
3.35787e-07
3.38332e-07
3.43731e-07
3.55002e-07
3.78888e-07
4.32886e-07
5.75353e-07
1.06563e-06
3.59778e-06
1.81812e-05
1.79731e-05
3.54621e-06
1.04895e-06
5.68277e-07
4.28956e-07
3.76499e-07
3.53543e-07
3.42869e-07
3.37847e-07
3.35522e-07
3.34482e-07
3.34041e-07
3.33867e-07
3.33804e-07
3.33785e-07
3.33783e-07
3.33802e-07
3.3387e-07
3.34063e-07
3.34544e-07
3.35655e-07
3.38094e-07
3.43279e-07
3.54165e-07
3.77379e-07
4.30099e-07
5.69499e-07
1.05038e-06
3.54271e-06
1.79434e-05
1.79749e-05
3.54662e-06
1.04901e-06
5.68275e-07
4.28938e-07
3.76477e-07
3.5352e-07
3.42847e-07
3.37824e-07
3.35498e-07
3.34457e-07
3.34014e-07
3.33839e-07
3.33775e-07
3.33756e-07
3.33755e-07
3.33776e-07
3.33846e-07
3.3404e-07
3.34522e-07
3.35632e-07
3.38068e-07
3.43248e-07
3.54127e-07
3.77334e-07
4.30055e-07
5.69478e-07
1.05044e-06
3.5432e-06
1.79453e-05
1.82169e-05
3.60251e-06
1.06423e-06
5.74024e-07
4.31604e-07
3.77888e-07
3.54284e-07
3.43248e-07
3.38024e-07
3.35597e-07
3.34515e-07
3.34062e-07
3.3389e-07
3.33834e-07
3.33818e-07
3.33817e-07
3.33831e-07
3.33893e-07
3.34081e-07
3.3457e-07
3.35719e-07
3.38255e-07
3.43637e-07
3.54886e-07
3.78752e-07
4.32748e-07
5.75287e-07
1.06582e-06
3.59931e-06
1.81869e-05
1.8712e-05
3.71802e-06
1.09597e-06
5.85942e-07
4.371e-07
3.80799e-07
3.55872e-07
3.44099e-07
3.38475e-07
3.35851e-07
3.34691e-07
3.34222e-07
3.3406e-07
3.34016e-07
3.34009e-07
3.34005e-07
3.34007e-07
3.3405e-07
3.34222e-07
3.34721e-07
3.35943e-07
3.38676e-07
3.44468e-07
3.56473e-07
3.81691e-07
4.38308e-07
5.87294e-07
1.09789e-06
3.71522e-06
1.86812e-05
1.94878e-05
3.90228e-06
1.14713e-06
6.04653e-07
4.45735e-07
3.85383e-07
3.58391e-07
3.45485e-07
3.39261e-07
3.36353e-07
3.35086e-07
3.34597e-07
3.34448e-07
3.34423e-07
3.34426e-07
3.3442e-07
3.34406e-07
3.34422e-07
3.34571e-07
3.35077e-07
3.36396e-07
3.3941e-07
3.45811e-07
3.58978e-07
3.86314e-07
4.47052e-07
6.06132e-07
1.14971e-06
3.90026e-06
1.94558e-05
2.05906e-05
4.17158e-06
1.22343e-06
6.32111e-07
4.58312e-07
3.9205e-07
3.62095e-07
3.47621e-07
3.40605e-07
3.37341e-07
3.35945e-07
3.35429e-07
3.35288e-07
3.35276e-07
3.35286e-07
3.35278e-07
3.35251e-07
3.35245e-07
3.35373e-07
3.35888e-07
3.37315e-07
3.40669e-07
3.47864e-07
3.62631e-07
3.93009e-07
4.59795e-07
6.33948e-07
1.22702e-06
4.17088e-06
2.05568e-05
2.20933e-05
4.55313e-06
1.33508e-06
6.71801e-07
4.76562e-07
4.0168e-07
3.67535e-07
3.51007e-07
3.43035e-07
3.39367e-07
3.37814e-07
3.37238e-07
3.37068e-07
3.3704e-07
3.37042e-07
3.37034e-07
3.37015e-07
3.37019e-07
3.37159e-07
3.37708e-07
3.39256e-07
3.42977e-07
3.51105e-07
3.67942e-07
4.02589e-07
4.7819e-07
6.74177e-07
1.34027e-06
4.55471e-06
2.20572e-05
2.41102e-05
5.09262e-06
1.5008e-06
7.30332e-07
5.05297e-07
4.15865e-07
3.75838e-07
3.56777e-07
3.47741e-07
3.43621e-07
3.41835e-07
3.41093e-07
3.40789e-07
3.40663e-07
3.40616e-07
3.40613e-07
3.40652e-07
3.40755e-07
3.41018e-07
3.41702e-07
3.43431e-07
3.47534e-07
3.56662e-07
3.76002e-07
4.16568e-07
5.0677e-07
7.33384e-07
1.50848e-06
5.09841e-06
2.40729e-05
2.68359e-05
5.8726e-06
1.75673e-06
8.19401e-07
5.45938e-07
4.36936e-07
3.89503e-07
3.67528e-07
3.57335e-07
3.52614e-07
3.50342e-07
3.49147e-07
3.4846e-07
3.48062e-07
3.47879e-07
3.47889e-07
3.48087e-07
3.4848e-07
3.4913e-07
3.50243e-07
3.52396e-07
3.56998e-07
3.67155e-07
3.89308e-07
4.37294e-07
5.47413e-07
8.23288e-07
1.76826e-06
5.88593e-06
2.68119e-05
3.07695e-05
7.04505e-06
2.17489e-06
9.63393e-07
6.0922e-07
4.72928e-07
4.15003e-07
3.894e-07
3.77637e-07
3.71678e-07
3.68162e-07
3.65823e-07
3.64225e-07
3.63209e-07
3.62724e-07
3.62758e-07
3.63304e-07
3.64359e-07
3.65953e-07
3.68218e-07
3.71568e-07
3.77282e-07
3.88811e-07
4.14364e-07
4.72736e-07
6.10078e-07
9.67829e-07
2.19224e-06
7.07049e-06
3.07464e-05
3.63456e-05
8.87914e-06
2.89036e-06
1.21067e-06
7.17849e-07
5.42864e-07
4.69352e-07
4.37788e-07
4.22536e-07
4.13014e-07
4.06144e-07
4.0104e-07
3.9742e-07
3.95097e-07
3.93985e-07
3.94057e-07
3.95308e-07
3.97753e-07
4.01456e-07
4.06567e-07
4.13294e-07
4.22476e-07
4.37239e-07
4.68444e-07
5.4166e-07
7.17266e-07
1.21443e-06
2.91434e-06
8.93431e-06
3.63345e-05
4.45469e-05
1.17661e-05
4.17693e-06
1.68605e-06
9.43119e-07
6.96058e-07
6.0272e-07
5.58652e-07
5.31001e-07
5.09561e-07
4.93397e-07
4.81425e-07
4.73182e-07
4.67943e-07
4.6544e-07
4.6557e-07
4.68333e-07
4.73833e-07
4.82331e-07
4.94546e-07
5.10789e-07
5.31968e-07
5.58987e-07
6.01929e-07
6.93741e-07
9.40037e-07
1.68784e-06
4.20816e-06
1.18497e-05
4.45818e-05
5.79569e-05
1.65598e-05
6.61481e-06
2.80268e-06
1.5531e-06
1.15099e-06
9.87482e-07
8.92619e-07
8.23985e-07
7.71371e-07
7.31332e-07
7.01711e-07
6.80957e-07
6.67854e-07
6.61608e-07
6.61825e-07
6.68515e-07
6.821e-07
7.03398e-07
7.33636e-07
7.74316e-07
8.27429e-07
8.95992e-07
9.89352e-07
1.14962e-06
1.5483e-06
2.80452e-06
6.66341e-06
1.67016e-05
5.81112e-05
8.49316e-05
2.27125e-05
1.14829e-05
5.84618e-06
3.76109e-06
2.92178e-06
2.45693e-06
2.13206e-06
1.89073e-06
1.71066e-06
1.57789e-06
1.48239e-06
1.41681e-06
1.37614e-06
1.35698e-06
1.35762e-06
1.37813e-06
1.42031e-06
1.48768e-06
1.58541e-06
1.721e-06
1.90467e-06
2.1502e-06
2.47754e-06
2.94011e-06
3.7745e-06
5.86357e-06
1.1554e-05
2.29188e-05
8.5335e-05
0.00010909
3.16662e-05
2.06693e-05
1.45532e-05
1.16405e-05
9.7451e-06
8.33861e-06
7.29285e-06
6.50651e-06
5.913e-06
5.46888e-06
5.14513e-06
4.92027e-06
4.78058e-06
4.71426e-06
4.71532e-06
4.78392e-06
4.9263e-06
5.15432e-06
5.48203e-06
5.93144e-06
6.53283e-06
7.33228e-06
8.40201e-06
9.82218e-06
1.1731e-05
1.46625e-05
2.08048e-05
3.20676e-05
0.00010987
0.00113909
0.000170911
8.94346e-05
5.87224e-05
4.52806e-05
3.74732e-05
3.2321e-05
2.87334e-05
2.61326e-05
2.41846e-05
2.27159e-05
2.16379e-05
2.08825e-05
2.04226e-05
2.02022e-05
2.0202e-05
2.04223e-05
2.08829e-05
2.16385e-05
2.27167e-05
2.41858e-05
2.61364e-05
2.87417e-05
3.23483e-05
3.75345e-05
4.53992e-05
5.89546e-05
8.99144e-05
0.00017213
0.00114706
0.000942525
0.000139878
7.58254e-05
5.13023e-05
4.05101e-05
3.40734e-05
2.96692e-05
2.64847e-05
2.41336e-05
2.23962e-05
2.11312e-05
2.02082e-05
1.95609e-05
1.91447e-05
1.89379e-05
1.89368e-05
1.91411e-05
1.95533e-05
2.01973e-05
2.11167e-05
2.23787e-05
2.41162e-05
2.64626e-05
2.96264e-05
3.39963e-05
4.03803e-05
5.10814e-05
7.54247e-05
0.00013884
0.000935642
9.16646e-05
3.32644e-05
2.2024e-05
1.65937e-05
1.40387e-05
1.25227e-05
1.1374e-05
1.03737e-05
9.48878e-06
8.73918e-06
8.13956e-06
7.68268e-06
7.35439e-06
7.14218e-06
7.03741e-06
7.03626e-06
7.13853e-06
7.34764e-06
7.67217e-06
8.12467e-06
8.71914e-06
9.46261e-06
1.03388e-05
1.13215e-05
1.2457e-05
1.39614e-05
1.65061e-05
2.19194e-05
3.28388e-05
9.09619e-05
7.24723e-05
2.21467e-05
1.34551e-05
8.51911e-06
6.06019e-06
4.77413e-06
4.00197e-06
3.4655e-06
3.06078e-06
2.745e-06
2.50285e-06
2.3238e-06
2.19809e-06
2.11867e-06
2.08038e-06
2.08062e-06
2.11932e-06
2.19855e-06
2.32354e-06
2.50205e-06
2.74345e-06
3.05776e-06
3.45937e-06
3.9913e-06
4.76317e-06
6.05049e-06
8.50561e-06
1.33918e-05
2.19732e-05
7.20545e-05
5.01691e-05
1.77313e-05
9.27588e-06
4.94783e-06
2.84141e-06
1.89336e-06
1.468e-06
1.24364e-06
1.10227e-06
9.98084e-07
9.19885e-07
8.62607e-07
8.22752e-07
7.97783e-07
7.85918e-07
7.86261e-07
7.9882e-07
8.24495e-07
8.65095e-07
9.2317e-07
1.00214e-06
1.10685e-06
1.24821e-06
1.47288e-06
1.90134e-06
2.8521e-06
4.94539e-06
9.23037e-06
1.76071e-05
4.9997e-05
3.8918e-05
1.37011e-05
6.5572e-06
3.04936e-06
1.52855e-06
9.49843e-07
7.22131e-07
6.20221e-07
5.63815e-07
5.2587e-07
4.98248e-07
4.77298e-07
4.6179e-07
4.51946e-07
4.47284e-07
4.47492e-07
4.52578e-07
4.62873e-07
4.78882e-07
5.00391e-07
5.28532e-07
5.6691e-07
6.23741e-07
7.26254e-07
9.57377e-07
1.53761e-06
3.05225e-06
6.53211e-06
1.36326e-05
3.88674e-05
3.20609e-05
1.12464e-05
4.68831e-06
1.97158e-06
9.80122e-07
6.27036e-07
4.88852e-07
4.2578e-07
3.91384e-07
3.7037e-07
3.56134e-07
3.45952e-07
3.38751e-07
3.34192e-07
3.32058e-07
3.32224e-07
3.34699e-07
3.39622e-07
3.47228e-07
3.57863e-07
3.72591e-07
3.94137e-07
4.29039e-07
4.92027e-07
6.30915e-07
9.85741e-07
1.97464e-06
4.67391e-06
1.12068e-05
3.20618e-05
2.7462e-05
9.46602e-06
3.47204e-06
1.38523e-06
7.22392e-07
4.90926e-07
3.93619e-07
3.48194e-07
3.2505e-07
3.11701e-07
3.03214e-07
2.97466e-07
2.93562e-07
2.91144e-07
2.90045e-07
2.90188e-07
2.91582e-07
2.94312e-07
2.98562e-07
3.04699e-07
3.13623e-07
3.2744e-07
3.50978e-07
3.96479e-07
4.93629e-07
7.25741e-07
1.38794e-06
3.46406e-06
9.44778e-06
2.74712e-05
2.42206e-05
8.09213e-06
2.70884e-06
1.07115e-06
5.88642e-07
4.19135e-07
3.46729e-07
3.13304e-07
2.96108e-07
2.86455e-07
2.80613e-07
2.76877e-07
2.74461e-07
2.73017e-07
2.72385e-07
2.72504e-07
2.73378e-07
2.75077e-07
2.77769e-07
2.81809e-07
2.87976e-07
2.97945e-07
3.15378e-07
3.48896e-07
4.21273e-07
5.90879e-07
1.07422e-06
2.70599e-06
8.07986e-06
2.42309e-05
2.17937e-05
7.02374e-06
2.21763e-06
8.85962e-07
5.11876e-07
3.76401e-07
3.20936e-07
2.95013e-07
2.81662e-07
2.74304e-07
2.70015e-07
2.67403e-07
2.65796e-07
2.64873e-07
2.64486e-07
2.64578e-07
2.65152e-07
2.6627e-07
2.68081e-07
2.70906e-07
2.75407e-07
2.82948e-07
2.96406e-07
3.22324e-07
3.77707e-07
5.13287e-07
8.88203e-07
2.21607e-06
7.01618e-06
2.18143e-05
1.99996e-05
6.21423e-06
1.89193e-06
7.7032e-07
4.61633e-07
3.50243e-07
3.05505e-07
2.84534e-07
2.73816e-07
2.6803e-07
2.64773e-07
2.62878e-07
2.61766e-07
2.61153e-07
2.60906e-07
2.60974e-07
2.61356e-07
2.62107e-07
2.63357e-07
2.65388e-07
2.68766e-07
2.74636e-07
2.85369e-07
3.06262e-07
3.50848e-07
4.6224e-07
7.71783e-07
1.89066e-06
6.20984e-06
2.00202e-05
1.86772e-05
5.61596e-06
1.672e-06
6.95951e-07
4.28768e-07
3.34191e-07
2.96038e-07
2.78288e-07
2.69356e-07
2.64655e-07
2.62103e-07
2.60685e-07
2.59892e-07
2.59473e-07
2.59309e-07
2.59356e-07
2.59611e-07
2.60121e-07
2.61e-07
2.62495e-07
2.65104e-07
2.69826e-07
2.78723e-07
2.96369e-07
3.34376e-07
4.28972e-07
6.96858e-07
1.6709e-06
5.6135e-06
1.86973e-05
1.77166e-05
5.18646e-06
1.52358e-06
6.47252e-07
4.07442e-07
3.24004e-07
2.90164e-07
2.7452e-07
2.66775e-07
2.62803e-07
2.60724e-07
2.5962e-07
2.59031e-07
2.58732e-07
2.58618e-07
2.58648e-07
2.58821e-07
2.59175e-07
2.59813e-07
2.60954e-07
2.6305e-07
2.67008e-07
2.74696e-07
2.90236e-07
3.23953e-07
4.07417e-07
6.4778e-07
1.5227e-06
5.18526e-06
1.77366e-05
1.70461e-05
4.89205e-06
1.42663e-06
6.15982e-07
3.93797e-07
3.17572e-07
2.86546e-07
2.72269e-07
2.65292e-07
2.61791e-07
2.60014e-07
2.59106e-07
2.58643e-07
2.58416e-07
2.58331e-07
2.58349e-07
2.58471e-07
2.58729e-07
2.59216e-07
2.60136e-07
2.61907e-07
2.65377e-07
2.72291e-07
2.86472e-07
3.17391e-07
3.9362e-07
6.16121e-07
1.4264e-06
4.89192e-06
1.70662e-05
1.66204e-05
4.70887e-06
1.36847e-06
5.97532e-07
3.8568e-07
3.13768e-07
2.84451e-07
2.71004e-07
2.64489e-07
2.61267e-07
2.59667e-07
2.58871e-07
2.58477e-07
2.58289e-07
2.58218e-07
2.5823e-07
2.58323e-07
2.58528e-07
2.58931e-07
2.59725e-07
2.61309e-07
2.64493e-07
2.70945e-07
2.84304e-07
3.13525e-07
3.8543e-07
5.9751e-07
1.36818e-06
4.70921e-06
1.66408e-05
1.6413e-05
4.62117e-06
1.34107e-06
5.88881e-07
3.81892e-07
3.12007e-07
2.83502e-07
2.70449e-07
2.6415e-07
2.61057e-07
2.59535e-07
2.58788e-07
2.58423e-07
2.58251e-07
2.58185e-07
2.58194e-07
2.58275e-07
2.58458e-07
2.58826e-07
2.59566e-07
2.61067e-07
2.64121e-07
2.7036e-07
2.83332e-07
3.11749e-07
3.81625e-07
5.8882e-07
1.34073e-06
4.62162e-06
1.64335e-05
1.64116e-05
4.62114e-06
1.34116e-06
5.88929e-07
3.81935e-07
3.12049e-07
2.83543e-07
2.70488e-07
2.64186e-07
2.61089e-07
2.59562e-07
2.58811e-07
2.58441e-07
2.58266e-07
2.58198e-07
2.58206e-07
2.58289e-07
2.58475e-07
2.58848e-07
2.59594e-07
2.61102e-07
2.64163e-07
2.70409e-07
2.83387e-07
3.11809e-07
3.81687e-07
5.8888e-07
1.34084e-06
4.62156e-06
1.64318e-05
1.6616e-05
4.70872e-06
1.36876e-06
5.97682e-07
3.85815e-07
3.139e-07
2.84579e-07
2.71126e-07
2.64602e-07
2.61367e-07
2.59751e-07
2.5894e-07
2.58533e-07
2.58335e-07
2.58258e-07
2.58269e-07
2.58367e-07
2.58581e-07
2.58999e-07
2.59811e-07
2.61415e-07
2.64621e-07
2.71095e-07
2.84475e-07
3.13713e-07
3.85624e-07
5.97701e-07
1.36852e-06
4.70905e-06
1.66358e-05
1.70387e-05
4.89165e-06
1.4271e-06
6.16256e-07
3.94045e-07
3.17811e-07
2.86777e-07
2.72488e-07
2.65493e-07
2.61969e-07
2.60165e-07
2.59229e-07
2.58742e-07
2.58497e-07
2.58401e-07
2.58418e-07
2.58547e-07
2.58821e-07
2.59332e-07
2.60281e-07
2.62086e-07
2.65595e-07
2.72548e-07
2.86768e-07
3.17723e-07
3.93967e-07
6.16467e-07
1.42701e-06
4.89165e-06
1.70577e-05
1.77061e-05
5.18551e-06
1.52413e-06
6.47733e-07
4.0784e-07
3.2438e-07
2.90524e-07
2.7486e-07
2.67085e-07
2.63075e-07
2.60954e-07
2.59807e-07
2.59182e-07
2.58856e-07
2.58727e-07
2.58754e-07
2.58935e-07
2.5931e-07
2.59979e-07
2.61161e-07
2.63306e-07
2.67319e-07
2.75068e-07
2.90673e-07
3.24453e-07
4.07952e-07
6.48315e-07
1.52358e-06
5.18467e-06
1.77241e-05
1.86635e-05
5.61412e-06
1.67256e-06
6.96677e-07
4.29357e-07
3.34742e-07
2.96564e-07
2.78783e-07
2.69805e-07
2.65046e-07
2.62431e-07
2.60952e-07
2.60108e-07
2.59651e-07
2.59466e-07
2.59507e-07
2.59772e-07
2.60306e-07
2.61224e-07
2.6277e-07
2.6544e-07
2.70234e-07
2.79213e-07
2.96952e-07
3.35063e-07
4.29737e-07
6.97638e-07
1.67205e-06
5.61237e-06
1.86804e-05
1.99826e-05
6.21095e-06
1.89243e-06
7.7138e-07
4.62457e-07
3.51009e-07
3.06244e-07
2.85229e-07
2.74442e-07
2.68568e-07
2.6522e-07
2.63241e-07
2.62062e-07
2.614e-07
2.61125e-07
2.61184e-07
2.61575e-07
2.62352e-07
2.63646e-07
2.65735e-07
2.69186e-07
2.75141e-07
2.85972e-07
3.06977e-07
3.51699e-07
4.63233e-07
7.72882e-07
1.89214e-06
6.20792e-06
1.99984e-05
2.17736e-05
7.01848e-06
2.21801e-06
8.87442e-07
5.12818e-07
3.7739e-07
3.21946e-07
2.95964e-07
2.82506e-07
2.75018e-07
2.706e-07
2.67879e-07
2.66187e-07
2.65204e-07
2.64782e-07
2.64863e-07
2.65445e-07