/*--------------------------------*- C++ -*----------------------------------*\
| =========                 |                                                 |
| \\      /  F ield         | OpenFOAM: The Open Source CFD Toolbox           |
|  \\    /   O peration     | Version:  2312                                  |
|   \\  /    A nd           | Website:  www.openfoam.com                      |
|    \\/     M anipulation  |                                                 |
\*---------------------------------------------------------------------------*/
FoamFile
{
    version     2.0;
    format      ascii;
    arch        "LSB;label=32;scalar=64";
    class       volScalarField;
    location    "800";
    object      k;
}
// * * * * * * * * * * * * * * * * * * * * * * * * * * * * * * * * * * * * * //

dimensions      [0 2 -2 0 0 0 0];

internalField   nonuniform List<scalar> 
27000
(
0.000258245
0.000129177
0.000107439
9.58807e-05
9.05327e-05
8.72087e-05
8.46672e-05
8.24312e-05
8.05656e-05
7.9052e-05
7.78411e-05
7.69003e-05
7.62086e-05
7.57429e-05
7.55044e-05
7.55094e-05
7.57568e-05
7.62276e-05
7.69254e-05
7.78715e-05
7.90859e-05
8.06003e-05
8.24626e-05
8.46893e-05
8.72121e-05
9.05003e-05
9.57855e-05
0.000107244
0.00012886
0.000257649
9.78823e-05
2.13686e-05
2.81406e-05
3.0618e-05
3.24385e-05
3.3641e-05
3.4407e-05
3.48689e-05
3.51269e-05
3.52837e-05
3.53899e-05
3.54661e-05
3.55197e-05
3.55527e-05
3.55666e-05
3.55629e-05
3.55416e-05
3.55009e-05
3.54396e-05
3.53553e-05
3.52402e-05
3.50745e-05
3.48098e-05
3.43465e-05
3.35763e-05
3.23651e-05
3.05332e-05
2.80368e-05
2.12765e-05
9.76951e-05
0.000101101
3.46479e-05
2.88531e-05
2.74277e-05
2.81048e-05
2.89674e-05
2.96843e-05
3.02805e-05
3.07453e-05
3.1105e-05
3.1385e-05
3.15995e-05
3.17556e-05
3.18563e-05
3.19032e-05
3.18972e-05
3.18388e-05
3.17281e-05
3.1564e-05
3.13435e-05
3.106e-05
3.07011e-05
3.02445e-05
2.96689e-05
2.89679e-05
2.81137e-05
2.74272e-05
2.87793e-05
3.44539e-05
0.000100946
9.48319e-05
3.51033e-05
2.88352e-05
2.87405e-05
2.95902e-05
3.03501e-05
3.09271e-05
3.13672e-05
3.1705e-05
3.19632e-05
3.21622e-05
3.23141e-05
3.24247e-05
3.24962e-05
3.25294e-05
3.25247e-05
3.24829e-05
3.24048e-05
3.22903e-05
3.21381e-05
3.1943e-05
3.16943e-05
3.13723e-05
3.09519e-05
3.03918e-05
2.96404e-05
2.87767e-05
2.88139e-05
3.49743e-05
9.47778e-05
9.04071e-05
3.414e-05
2.90977e-05
2.9875e-05
3.08978e-05
3.16293e-05
3.21246e-05
3.24635e-05
3.27001e-05
3.28672e-05
3.29881e-05
3.30763e-05
3.31388e-05
3.31785e-05
3.31967e-05
3.31939e-05
3.31707e-05
3.31279e-05
3.30654e-05
3.29808e-05
3.28675e-05
3.27122e-05
3.24905e-05
3.21663e-05
3.16803e-05
3.09467e-05
2.99037e-05
2.90824e-05
3.40563e-05
9.04194e-05
8.67755e-05
3.38816e-05
2.94888e-05
3.061e-05
3.17079e-05
3.24376e-05
3.28996e-05
3.31877e-05
3.33651e-05
3.34731e-05
3.35391e-05
3.358e-05
3.36055e-05
3.36202e-05
3.36265e-05
3.36252e-05
3.3617e-05
3.3602e-05
3.35788e-05
3.35431e-05
3.34851e-05
3.33871e-05
3.32201e-05
3.29397e-05
3.24787e-05
3.17394e-05
3.06187e-05
2.94649e-05
3.38227e-05
8.68266e-05
8.36461e-05
3.39319e-05
3.00933e-05
3.11967e-05
3.22425e-05
3.29376e-05
3.337e-05
3.36248e-05
3.37649e-05
3.38347e-05
3.38643e-05
3.38731e-05
3.38729e-05
3.38701e-05
3.38678e-05
3.38676e-05
3.38699e-05
3.38741e-05
3.38774e-05
3.38735e-05
3.38503e-05
3.3787e-05
3.3652e-05
3.33984e-05
3.29606e-05
3.22507e-05
3.11802e-05
3.0044e-05
3.38814e-05
8.37199e-05
8.09216e-05
3.40897e-05
3.07261e-05
3.17084e-05
3.26405e-05
3.32647e-05
3.36517e-05
3.38723e-05
3.39831e-05
3.40267e-05
3.4033e-05
3.40219e-05
3.40061e-05
3.39925e-05
3.39851e-05
3.39856e-05
3.39941e-05
3.40095e-05
3.40282e-05
3.40429e-05
3.40404e-05
3.39998e-05
3.38895e-05
3.36654e-05
3.32688e-05
3.26278e-05
3.16734e-05
3.06699e-05
3.4051e-05
8.10093e-05
7.84174e-05
3.42474e-05
3.12636e-05
3.21318e-05
3.29482e-05
3.34907e-05
3.38222e-05
3.40047e-05
3.40887e-05
3.41127e-05
3.41045e-05
3.40827e-05
3.4059e-05
3.40404e-05
3.40307e-05
3.40313e-05
3.40425e-05
3.40628e-05
3.40884e-05
3.41122e-05
3.41218e-05
3.40977e-05
3.40109e-05
3.3822e-05
3.34794e-05
3.29213e-05
3.20879e-05
3.12091e-05
3.42214e-05
7.85324e-05
7.62663e-05
3.43811e-05
3.1699e-05
3.24714e-05
3.31854e-05
3.36517e-05
3.39275e-05
3.40718e-05
3.4131e-05
3.41399e-05
3.4123e-05
3.40965e-05
3.40706e-05
3.4051e-05
3.40408e-05
3.40414e-05
3.40527e-05
3.40735e-05
3.41004e-05
3.41273e-05
3.41434e-05
3.41322e-05
3.40684e-05
3.39165e-05
3.36301e-05
3.31512e-05
3.24256e-05
3.16499e-05
3.43655e-05
7.63841e-05
7.44888e-05
3.44881e-05
3.20425e-05
3.2741e-05
3.3371e-05
3.37697e-05
3.3995e-05
3.41044e-05
3.41419e-05
3.41392e-05
3.41175e-05
3.40901e-05
3.40651e-05
3.40469e-05
3.40375e-05
3.40379e-05
3.40479e-05
3.40667e-05
3.40916e-05
3.4118e-05
3.41375e-05
3.41366e-05
3.40935e-05
3.39765e-05
3.3742e-05
3.33337e-05
3.26965e-05
3.19995e-05
3.44801e-05
7.46052e-05
7.30786e-05
3.4569e-05
3.23035e-05
3.29476e-05
3.35127e-05
3.38567e-05
3.404e-05
3.41202e-05
3.414e-05
3.41287e-05
3.41045e-05
3.40782e-05
3.40556e-05
3.40396e-05
3.40315e-05
3.40317e-05
3.40399e-05
3.40556e-05
3.40773e-05
3.41017e-05
3.41228e-05
3.41297e-05
3.41041e-05
3.40168e-05
3.38259e-05
3.34748e-05
3.29055e-05
3.22657e-05
3.45662e-05
7.3193e-05
7.20276e-05
3.4626e-05
3.24904e-05
3.30969e-05
3.36151e-05
3.39185e-05
3.407e-05
3.41281e-05
3.41347e-05
3.41175e-05
3.40922e-05
3.40675e-05
3.40476e-05
3.4034e-05
3.40271e-05
3.4027e-05
3.40335e-05
3.40463e-05
3.40647e-05
3.40868e-05
3.41085e-05
3.41211e-05
3.41088e-05
3.40444e-05
3.38866e-05
3.35779e-05
3.30572e-05
3.24567e-05
3.46267e-05
7.21403e-05
7.13288e-05
3.46616e-05
3.26105e-05
3.31935e-05
3.36815e-05
3.39584e-05
3.40889e-05
3.41323e-05
3.41303e-05
3.41094e-05
3.40837e-05
3.40605e-05
3.40427e-05
3.40309e-05
3.40249e-05
3.40246e-05
3.40299e-05
3.40405e-05
3.40564e-05
3.40767e-05
3.40985e-05
3.41148e-05
3.41113e-05
3.40623e-05
3.39264e-05
3.36454e-05
3.3156e-05
3.25797e-05
3.46644e-05
7.14403e-05
7.09772e-05
3.46775e-05
3.26687e-05
3.32406e-05
3.37141e-05
3.39779e-05
3.40982e-05
3.41344e-05
3.41283e-05
3.41056e-05
3.40798e-05
3.40575e-05
3.40408e-05
3.40299e-05
3.40244e-05
3.40241e-05
3.40286e-05
3.40381e-05
3.40528e-05
3.40721e-05
3.4094e-05
3.41121e-05
3.41131e-05
3.40716e-05
3.39465e-05
3.3679e-05
3.32047e-05
3.26395e-05
3.46812e-05
7.10876e-05
7.09701e-05
3.46748e-05
3.26676e-05
3.32401e-05
3.37139e-05
3.39781e-05
3.40986e-05
3.4135e-05
3.41291e-05
3.41063e-05
3.40806e-05
3.40582e-05
3.40415e-05
3.40305e-05
3.4025e-05
3.40247e-05
3.40293e-05
3.40389e-05
3.40536e-05
3.40731e-05
3.40951e-05
3.41132e-05
3.41143e-05
3.40727e-05
3.39475e-05
3.36798e-05
3.3205e-05
3.26389e-05
3.46783e-05
7.10796e-05
7.13077e-05
3.46534e-05
3.2607e-05
3.31918e-05
3.36811e-05
3.39588e-05
3.40901e-05
3.41341e-05
3.41324e-05
3.41116e-05
3.40859e-05
3.40626e-05
3.40446e-05
3.40327e-05
3.40267e-05
3.40264e-05
3.40318e-05
3.40427e-05
3.40589e-05
3.40795e-05
3.41016e-05
3.41182e-05
3.41149e-05
3.40657e-05
3.39294e-05
3.36476e-05
3.31568e-05
3.25776e-05
3.46556e-05
7.14161e-05
7.1993e-05
3.46123e-05
3.24844e-05
3.3094e-05
3.36143e-05
3.39193e-05
3.4072e-05
3.41309e-05
3.4138e-05
3.41209e-05
3.40955e-05
3.40707e-05
3.40505e-05
3.40366e-05
3.40296e-05
3.40296e-05
3.40364e-05
3.40496e-05
3.40685e-05
3.40911e-05
3.41134e-05
3.41264e-05
3.41144e-05
3.405e-05
3.38916e-05
3.35817e-05
3.30586e-05
3.24534e-05
3.46121e-05
7.20999e-05
7.30314e-05
3.45493e-05
3.22945e-05
3.29432e-05
3.35113e-05
3.38576e-05
3.40426e-05
3.41239e-05
3.41443e-05
3.41331e-05
3.41086e-05
3.40819e-05
3.40588e-05
3.40425e-05
3.40343e-05
3.40346e-05
3.40432e-05
3.40594e-05
3.40818e-05
3.4107e-05
3.41288e-05
3.41365e-05
3.41113e-05
3.40242e-05
3.38327e-05
3.34801e-05
3.29076e-05
3.22613e-05
3.45457e-05
7.3136e-05
7.44301e-05
3.4462e-05
3.20301e-05
3.27348e-05
3.33689e-05
3.37707e-05
3.39982e-05
3.41088e-05
3.41468e-05
3.41439e-05
3.41217e-05
3.40937e-05
3.4068e-05
3.40493e-05
3.40398e-05
3.40404e-05
3.40509e-05
3.40704e-05
3.40962e-05
3.41236e-05
3.4144e-05
3.4144e-05
3.41016e-05
3.3985e-05
3.37501e-05
3.33402e-05
3.26992e-05
3.1994e-05
3.44536e-05
7.45313e-05
7.61971e-05
3.4348e-05
3.16822e-05
3.24629e-05
3.31825e-05
3.36527e-05
3.3931e-05
3.40766e-05
3.4136e-05
3.41443e-05
3.41266e-05
3.40991e-05
3.40723e-05
3.40522e-05
3.4042e-05
3.40428e-05
3.40548e-05
3.40764e-05
3.41043e-05
3.41323e-05
3.41495e-05
3.41393e-05
3.40763e-05
3.3925e-05
3.36384e-05
3.31581e-05
3.24284e-05
3.16429e-05
3.4333e-05
7.62933e-05
7.83399e-05
3.42066e-05
3.12416e-05
3.21208e-05
3.29444e-05
3.34917e-05
3.38258e-05
3.40093e-05
3.40931e-05
3.4116e-05
3.41065e-05
3.40833e-05
3.40586e-05
3.40395e-05
3.40298e-05
3.40309e-05
3.40429e-05
3.40642e-05
3.4091e-05
3.4116e-05
3.41265e-05
3.41033e-05
3.40174e-05
3.3829e-05
3.34865e-05
3.29271e-05
3.20895e-05
3.11997e-05
3.41827e-05
7.84267e-05
8.0849e-05
3.40401e-05
3.06984e-05
3.16955e-05
3.26365e-05
3.32658e-05
3.36552e-05
3.38761e-05
3.39859e-05
3.40278e-05
3.40321e-05
3.40195e-05
3.40025e-05
3.39885e-05
3.39813e-05
3.39825e-05
3.39922e-05
3.40089e-05
3.4029e-05
3.40447e-05
3.40431e-05
3.40031e-05
3.38932e-05
3.36693e-05
3.32728e-05
3.26306e-05
3.16719e-05
3.06562e-05
3.40057e-05
8.0909e-05
8.35667e-05
3.3872e-05
3.00617e-05
3.11837e-05
3.22388e-05
3.29385e-05
3.33725e-05
3.36265e-05
3.37647e-05
3.3832e-05
3.38592e-05
3.38662e-05
3.38649e-05
3.38618e-05
3.38601e-05
3.38611e-05
3.3865e-05
3.38708e-05
3.38757e-05
3.3873e-05
3.38503e-05
3.37872e-05
3.3652e-05
3.3398e-05
3.29595e-05
3.22483e-05
3.11737e-05
3.00246e-05
3.38271e-05
8.36094e-05
8.66855e-05
3.38144e-05
2.94604e-05
3.05977e-05
3.1704e-05
3.24372e-05
3.28994e-05
3.31855e-05
3.33597e-05
3.34646e-05
3.35279e-05
3.3567e-05
3.35916e-05
3.36064e-05
3.36137e-05
3.36141e-05
3.3608e-05
3.35952e-05
3.35739e-05
3.35395e-05
3.34821e-05
3.33838e-05
3.32159e-05
3.2934e-05
3.24713e-05
3.173e-05
3.06053e-05
2.94406e-05
3.37611e-05
8.67049e-05
9.03024e-05
3.40557e-05
2.90613e-05
2.9859e-05
3.08908e-05
3.16249e-05
3.21187e-05
3.24538e-05
3.26861e-05
3.28498e-05
3.29683e-05
3.30551e-05
3.31172e-05
3.31576e-05
3.31773e-05
3.31767e-05
3.31563e-05
3.31163e-05
3.30562e-05
3.29732e-05
3.28605e-05
3.27047e-05
3.24817e-05
3.21554e-05
3.16665e-05
3.09291e-05
2.98799e-05
2.9045e-05
3.39801e-05
9.02872e-05
9.47045e-05
3.49954e-05
2.87823e-05
2.8716e-05
2.95756e-05
3.03367e-05
3.09102e-05
3.13444e-05
3.16775e-05
3.1933e-05
3.21308e-05
3.22823e-05
3.23932e-05
3.24658e-05
3.2501e-05
3.24991e-05
3.24606e-05
3.23857e-05
3.22741e-05
3.21237e-05
3.19293e-05
3.16803e-05
3.13573e-05
3.09355e-05
3.03717e-05
2.96149e-05
2.87413e-05
2.87581e-05
3.48821e-05
9.46352e-05
0.00010095
3.45282e-05
2.87664e-05
2.73826e-05
2.80708e-05
2.89349e-05
2.96464e-05
3.02337e-05
3.06962e-05
3.10564e-05
3.13375e-05
3.1553e-05
3.17101e-05
3.18123e-05
3.18614e-05
3.18582e-05
3.1803e-05
3.16953e-05
3.15336e-05
3.13144e-05
3.10311e-05
3.06714e-05
3.0214e-05
2.96411e-05
2.89373e-05
2.80765e-05
2.73781e-05
2.86991e-05
3.4371e-05
0.000100809
9.77216e-05
2.13119e-05
2.80519e-05
3.05337e-05
3.23572e-05
3.35633e-05
3.43303e-05
3.47914e-05
3.50519e-05
3.5212e-05
3.53211e-05
3.53995e-05
3.54546e-05
3.54876e-05
3.55018e-05
3.54986e-05
3.5478e-05
3.54383e-05
3.53763e-05
3.52905e-05
3.51734e-05
3.50053e-05
3.4738e-05
3.42744e-05
3.3502e-05
3.22876e-05
3.04541e-05
2.79544e-05
2.12315e-05
9.75407e-05
0.00025785
0.000128964
0.000107282
9.57647e-05
9.04379e-05
8.71256e-05
8.45903e-05
8.23583e-05
8.04945e-05
7.89809e-05
7.77686e-05
7.68255e-05
7.61285e-05
7.56432e-05
7.53978e-05
7.53992e-05
7.56471e-05
7.61336e-05
7.68317e-05
7.77751e-05
7.89863e-05
8.04968e-05
8.23544e-05
8.45762e-05
8.7095e-05
9.03792e-05
9.56589e-05
0.0001071
0.000128685
0.00025733
0.000212201
0.000107434
9.28054e-05
8.47934e-05
8.20189e-05
8.05819e-05
7.96154e-05
7.8749e-05
7.80321e-05
7.74264e-05
7.68752e-05
7.64331e-05
7.61048e-05
7.59107e-05
7.58315e-05
7.58283e-05
7.59022e-05
7.60981e-05
7.6424e-05
7.68627e-05
7.74089e-05
7.80037e-05
7.87232e-05
7.96225e-05
8.06418e-05
8.21517e-05
8.50364e-05
9.31962e-05
0.000108066
0.000213418
7.87711e-05
2.40235e-05
4.14957e-05
4.23765e-05
4.35793e-05
4.3757e-05
4.33025e-05
4.28623e-05
4.23332e-05
4.18026e-05
4.13366e-05
4.09636e-05
4.06904e-05
4.05149e-05
4.04312e-05
4.04352e-05
4.05276e-05
4.07131e-05
4.09973e-05
4.13833e-05
4.18672e-05
4.24248e-05
4.30051e-05
4.35955e-05
4.40895e-05
4.39124e-05
4.26897e-05
4.17341e-05
2.43921e-05
7.92188e-05
9.04862e-05
5.09083e-05
4.08531e-05
3.27578e-05
3.00727e-05
2.96391e-05
2.96277e-05
2.94882e-05
2.93119e-05
2.91271e-05
2.89559e-05
2.88151e-05
2.87096e-05
2.86448e-05
2.86205e-05
2.86355e-05
2.86886e-05
2.87777e-05
2.8903e-05
2.90658e-05
2.92602e-05
2.94648e-05
2.96501e-05
2.97507e-05
2.97061e-05
3.00892e-05
3.277e-05
4.10167e-05
5.14294e-05
9.08285e-05
8.62196e-05
4.9805e-05
3.59697e-05
2.79671e-05
2.46098e-05
2.4201e-05
2.46833e-05
2.52388e-05
2.56893e-05
2.60538e-05
2.63165e-05
2.64957e-05
2.66129e-05
2.66865e-05
2.6728e-05
2.6742e-05
2.67277e-05
2.66779e-05
2.65802e-05
2.64167e-05
2.61619e-05
2.579e-05
2.53077e-05
2.46928e-05
2.41408e-05
2.45031e-05
2.79246e-05
3.61455e-05
5.02427e-05
8.63683e-05
8.43764e-05
4.56699e-05
3.22711e-05
2.56198e-05
2.36e-05
2.36468e-05
2.43801e-05
2.51631e-05
2.58092e-05
2.63108e-05
2.66814e-05
2.69428e-05
2.71175e-05
2.72259e-05
2.72818e-05
2.72918e-05
2.72548e-05
2.71627e-05
2.69998e-05
2.67437e-05
2.63683e-05
2.58461e-05
2.51602e-05
2.43256e-05
2.35494e-05
2.3508e-05
2.56038e-05
3.23761e-05
4.59872e-05
8.43892e-05
8.30776e-05
4.2298e-05
3.00959e-05
2.49251e-05
2.39361e-05
2.43695e-05
2.51285e-05
2.58756e-05
2.65087e-05
2.70076e-05
2.73815e-05
2.76487e-05
2.78297e-05
2.79421e-05
2.79984e-05
2.80047e-05
2.79602e-05
2.78571e-05
2.7681e-05
2.74122e-05
2.70277e-05
2.65083e-05
2.58478e-05
2.50738e-05
2.4306e-05
2.38996e-05
2.49673e-05
3.02148e-05
4.2546e-05
8.30215e-05
8.18922e-05
4.00577e-05
2.85323e-05
2.48467e-05
2.46374e-05
2.5241e-05
2.59657e-05
2.66329e-05
2.71944e-05
2.76399e-05
2.79766e-05
2.82195e-05
2.83849e-05
2.84876e-05
2.85381e-05
2.85417e-05
2.84975e-05
2.83991e-05
2.82343e-05
2.79872e-05
2.76408e-05
2.71816e-05
2.6607e-05
2.59351e-05
2.5225e-05
2.46655e-05
2.49477e-05
2.86948e-05
4.01546e-05
8.18253e-05
8.08231e-05
3.8745e-05
2.75617e-05
2.49909e-05
2.52765e-05
2.59886e-05
2.66776e-05
2.72694e-05
2.77527e-05
2.81316e-05
2.84168e-05
2.86222e-05
2.8762e-05
2.88483e-05
2.88901e-05
2.88917e-05
2.88525e-05
2.87672e-05
2.86262e-05
2.84167e-05
2.81253e-05
2.77407e-05
2.72564e-05
2.66747e-05
2.60125e-05
2.53497e-05
2.51238e-05
2.7708e-05
3.87994e-05
8.07555e-05
8.01724e-05
3.78678e-05
2.70628e-05
2.52949e-05
2.58218e-05
2.65804e-05
2.7237e-05
2.77647e-05
2.81766e-05
2.84898e-05
2.87208e-05
2.88848e-05
2.89951e-05
2.90627e-05
2.90947e-05
2.90951e-05
2.90633e-05
2.89952e-05
2.88832e-05
2.87166e-05
2.84835e-05
2.81712e-05
2.77666e-05
2.72563e-05
2.66301e-05
2.59143e-05
2.54292e-05
2.71846e-05
3.7899e-05
8.00664e-05
7.96391e-05
3.72595e-05
2.6804e-05
2.55879e-05
2.62554e-05
2.70305e-05
2.76568e-05
2.81317e-05
2.84831e-05
2.87381e-05
2.89192e-05
2.90438e-05
2.91257e-05
2.91748e-05
2.91977e-05
2.91973e-05
2.91737e-05
2.91235e-05
2.90404e-05
2.89151e-05
2.87354e-05
2.84856e-05
2.81456e-05
2.769e-05
2.70911e-05
2.63487e-05
2.57078e-05
2.69013e-05
3.72759e-05
7.95366e-05
7.91781e-05
3.6835e-05
2.66739e-05
2.58247e-05
2.65769e-05
2.73593e-05
2.79598e-05
2.83925e-05
2.86953e-05
2.89026e-05
2.90416e-05
2.91326e-05
2.91898e-05
2.92229e-05
2.92378e-05
2.92373e-05
2.92213e-05
2.91873e-05
2.91298e-05
2.90398e-05
2.89044e-05
2.87045e-05
2.84143e-05
2.79997e-05
2.74218e-05
2.66635e-05
2.59277e-05
2.6751e-05
3.68427e-05
7.9082e-05
7.8795e-05
3.65424e-05
2.6616e-05
2.60085e-05
2.68094e-05
2.75915e-05
2.81704e-05
2.85705e-05
2.8836e-05
2.90065e-05
2.91129e-05
2.91774e-05
2.92152e-05
2.92357e-05
2.92445e-05
2.9244e-05
2.92344e-05
2.92135e-05
2.91764e-05
2.91141e-05
2.90125e-05
2.88502e-05
2.85968e-05
2.82125e-05
2.76517e-05
2.68873e-05
2.60963e-05
2.66779e-05
3.6545e-05
7.87041e-05
7.84994e-05
3.63477e-05
2.65969e-05
2.61453e-05
2.69717e-05
2.77489e-05
2.83102e-05
2.86859e-05
2.89244e-05
2.90686e-05
2.91516e-05
2.91972e-05
2.9221e-05
2.92325e-05
2.92369e-05
2.92367e-05
2.92319e-05
2.92206e-05
2.91981e-05
2.91555e-05
2.90778e-05
2.89418e-05
2.87144e-05
2.83522e-05
2.78055e-05
2.70416e-05
2.6221e-05
2.66484e-05
3.63475e-05
7.84117e-05
7.82992e-05
3.62288e-05
2.65956e-05
2.62375e-05
2.70756e-05
2.78466e-05
2.8395e-05
2.87543e-05
2.89752e-05
2.91024e-05
2.91705e-05
2.9204e-05
2.92189e-05
2.92247e-05
2.92264e-05
2.92264e-05
2.92248e-05
2.92197e-05
2.92067e-05
2.91765e-05
2.91139e-05
2.89944e-05
2.87836e-05
2.8436e-05
2.78999e-05
2.71395e-05
2.63051e-05
2.66405e-05
3.62273e-05
7.82133e-05
7.82002e-05
3.61728e-05
2.65983e-05
2.62839e-05
2.71262e-05
2.78933e-05
2.84346e-05
2.87855e-05
2.89976e-05
2.91165e-05
2.91773e-05
2.92049e-05
2.92155e-05
2.92185e-05
2.92189e-05
2.92191e-05
2.9219e-05
2.92171e-05
2.92086e-05
2.91845e-05
2.91291e-05
2.90177e-05
2.88149e-05
2.84747e-05
2.79442e-05
2.71865e-05
2.6347e-05
2.664e-05
3.61709e-05
7.81153e-05
7.82051e-05
3.61735e-05
2.65988e-05
2.62837e-05
2.71258e-05
2.78926e-05
2.84337e-05
2.87844e-05
2.89963e-05
2.9115e-05
2.91756e-05
2.9203e-05
2.92134e-05
2.92163e-05
2.92168e-05
2.9217e-05
2.92171e-05
2.92153e-05
2.92069e-05
2.9183e-05
2.91277e-05
2.90163e-05
2.88134e-05
2.8473e-05
2.79425e-05
2.71847e-05
2.63456e-05
2.66401e-05
3.61718e-05
7.81205e-05
7.8314e-05
3.62312e-05
2.65976e-05
2.62372e-05
2.70744e-05
2.78447e-05
2.83924e-05
2.8751e-05
2.89713e-05
2.90978e-05
2.91653e-05
2.91983e-05
2.92128e-05
2.92184e-05
2.92201e-05
2.92202e-05
2.92189e-05
2.92143e-05
2.92017e-05
2.91721e-05
2.91097e-05
2.89903e-05
2.87792e-05
2.84312e-05
2.78946e-05
2.71341e-05
2.63008e-05
2.66408e-05
3.62302e-05
7.82294e-05
7.85237e-05
3.63521e-05
2.66012e-05
2.61457e-05
2.69703e-05
2.7746e-05
2.8306e-05
2.86805e-05
2.89179e-05
2.9061e-05
2.91431e-05
2.91879e-05
2.92111e-05
2.92223e-05
2.92266e-05
2.92266e-05
2.92223e-05
2.92118e-05
2.91901e-05
2.91482e-05
2.9071e-05
2.8935e-05
2.87072e-05
2.83441e-05
2.77965e-05
2.70325e-05
2.62136e-05
2.66489e-05
3.63526e-05
7.8439e-05
7.88284e-05
3.65498e-05
2.66241e-05
2.60111e-05
2.68085e-05
2.75879e-05
2.81647e-05
2.85629e-05
2.88268e-05
2.8996e-05
2.91013e-05
2.9165e-05
2.92021e-05
2.92222e-05
2.92309e-05
2.92307e-05
2.92217e-05
2.92017e-05
2.91655e-05
2.91042e-05
2.90032e-05
2.88409e-05
2.85868e-05
2.82012e-05
2.76389e-05
2.68739e-05
2.60852e-05
2.66785e-05
3.65529e-05
7.87436e-05
7.922e-05
3.68464e-05
2.6688e-05
2.58309e-05
2.65773e-05
2.73551e-05
2.79523e-05
2.83825e-05
2.86835e-05
2.88895e-05
2.90275e-05
2.91177e-05
2.91743e-05
2.9207e-05
2.92218e-05
2.92214e-05
2.9206e-05
2.9173e-05
2.91165e-05
2.90277e-05
2.8893e-05
2.86931e-05
2.84019e-05
2.79853e-05
2.74051e-05
2.66456e-05
2.59126e-05
2.6752e-05
3.68541e-05
7.91349e-05
7.96891e-05
3.72765e-05
2.68269e-05
2.55993e-05
2.62574e-05
2.70254e-05
2.7647e-05
2.8119e-05
2.84688e-05
2.8723e-05
2.89035e-05
2.90277e-05
2.91091e-05
2.91578e-05
2.91804e-05
2.91801e-05
2.91569e-05
2.91075e-05
2.90255e-05
2.89013e-05
2.87224e-05
2.84725e-05
2.81313e-05
2.76732e-05
2.70711e-05
2.63264e-05
2.56885e-05
2.69033e-05
3.72916e-05
7.96041e-05
8.02283e-05
3.78927e-05
2.70978e-05
2.53126e-05
2.58247e-05
2.65731e-05
2.7224e-05
2.77491e-05
2.81604e-05
2.84739e-05
2.87053e-05
2.88694e-05
2.89795e-05
2.90466e-05
2.90781e-05
2.90781e-05
2.90464e-05
2.89787e-05
2.88674e-05
2.87018e-05
2.84695e-05
2.81573e-05
2.77515e-05
2.72386e-05
2.66083e-05
2.58891e-05
2.54071e-05
2.71892e-05
3.79199e-05
8.01473e-05
8.08603e-05
3.8784e-05
2.7613e-05
2.50147e-05
2.52781e-05
2.59769e-05
2.66607e-05
2.72516e-05
2.77365e-05
2.81175e-05
2.84043e-05
2.86104e-05
2.875e-05
2.88356e-05
2.88764e-05
2.8877e-05
2.88371e-05
2.87515e-05
2.86106e-05
2.84018e-05
2.81112e-05
2.7727e-05
2.72422e-05
2.66581e-05
2.59921e-05
2.5326e-05
2.51043e-05
2.772e-05
3.883e-05
8.0813e-05
8.1936e-05
4.01299e-05
2.86033e-05
2.48722e-05
2.4633e-05
2.52238e-05
2.59458e-05
2.66158e-05
2.7182e-05
2.76317e-05
2.79712e-05
2.82151e-05
2.83802e-05
2.84816e-05
2.85303e-05
2.85319e-05
2.84859e-05
2.8386e-05
2.82204e-05
2.79733e-05
2.76276e-05
2.71695e-05
2.65954e-05
2.59226e-05
2.52098e-05
2.46476e-05
2.49386e-05
2.87226e-05
4.02115e-05
8.18962e-05
8.31799e-05
4.24871e-05
3.0156e-05
2.4944e-05
2.3925e-05
2.43489e-05
2.51103e-05
2.58656e-05
2.65068e-05
2.70118e-05
2.73888e-05
2.76566e-05
2.78365e-05
2.79466e-05
2.79999e-05
2.80028e-05
2.7955e-05
2.7849e-05
2.76708e-05
2.7401e-05
2.70168e-05
2.64992e-05
2.58411e-05
2.50686e-05
2.43008e-05
2.38936e-05
2.49671e-05
3.0243e-05
4.26942e-05
8.31638e-05
8.45197e-05
4.58762e-05
3.23334e-05
2.56446e-05
2.35925e-05
2.36319e-05
2.4375e-05
2.51722e-05
2.58299e-05
2.6337e-05
2.67086e-05
2.69688e-05
2.71411e-05
2.72459e-05
2.72974e-05
2.73022e-05
2.72599e-05
2.71629e-05
2.69962e-05
2.67377e-05
2.63622e-05
2.58427e-05
2.51609e-05
2.43309e-05
2.35589e-05
2.3522e-05
2.56264e-05
3.24082e-05
4.6133e-05
8.45633e-05
8.64191e-05
5.00529e-05
3.61056e-05
2.801e-05
2.46176e-05
2.42138e-05
2.47138e-05
2.52864e-05
2.57444e-05
2.61088e-05
2.6368e-05
2.65435e-05
2.66576e-05
2.67271e-05
2.67627e-05
2.67696e-05
2.67473e-05
2.66902e-05
2.65871e-05
2.64202e-05
2.61651e-05
2.57972e-05
2.53227e-05
2.47128e-05
2.41668e-05
2.45372e-05
2.79746e-05
3.62328e-05
5.03942e-05
8.65693e-05
9.07414e-05
5.11572e-05
4.0967e-05
3.27894e-05
3.01032e-05
2.96874e-05
2.97042e-05
2.95818e-05
2.93963e-05
2.9201e-05
2.90214e-05
2.88759e-05
2.87698e-05
2.87028e-05
2.86734e-05
2.86809e-05
2.8725e-05
2.88063e-05
2.89271e-05
2.90881e-05
2.92834e-05
2.94935e-05
2.96887e-05
2.97829e-05
2.97349e-05
3.01144e-05
3.27943e-05
4.10795e-05
5.15385e-05
9.1023e-05
7.90579e-05
2.41623e-05
4.16193e-05
4.25377e-05
4.37691e-05
4.39552e-05
4.34832e-05
4.29463e-05
4.23892e-05
4.18447e-05
4.13703e-05
4.0992e-05
4.07146e-05
4.05371e-05
4.04519e-05
4.04551e-05
4.05468e-05
4.07315e-05
4.10171e-05
4.14055e-05
4.18931e-05
4.24579e-05
4.30541e-05
4.37084e-05
4.42107e-05
4.40236e-05
4.27736e-05
4.17978e-05
2.44574e-05
7.94274e-05
0.000212877
0.00010777
9.30468e-05
8.49775e-05
8.21662e-05
8.07019e-05
7.97108e-05
7.8825e-05
7.81006e-05
7.74686e-05
7.69148e-05
7.64735e-05
7.61505e-05
7.59906e-05
7.59189e-05
7.59187e-05
7.59902e-05
7.61515e-05
7.64754e-05
7.69171e-05
7.74721e-05
7.81095e-05
7.88418e-05
7.97569e-05
8.07901e-05
8.23088e-05
8.51989e-05
9.33748e-05
0.000108274
0.000213854
0.00018772
9.43372e-05
8.33709e-05
7.76652e-05
7.62816e-05
7.57259e-05
7.52635e-05
7.46268e-05
7.40343e-05
7.35765e-05
7.32705e-05
7.30425e-05
7.28772e-05
7.27572e-05
7.26874e-05
7.26845e-05
7.2748e-05
7.28584e-05
7.30163e-05
7.32375e-05
7.35382e-05
7.39985e-05
7.45853e-05
7.51918e-05
7.56134e-05
7.61213e-05
7.74461e-05
8.30817e-05
9.38778e-05
0.000186823
7.04474e-05
3.04163e-05
5.10875e-05
5.4133e-05
5.71819e-05
5.95551e-05
6.09262e-05
6.10792e-05
6.04375e-05
5.94139e-05
5.83333e-05
5.73725e-05
5.66151e-05
5.60978e-05
5.58363e-05
5.58361e-05
5.60968e-05
5.66119e-05
5.73657e-05
5.8322e-05
5.93983e-05
6.04172e-05
6.10428e-05
6.07867e-05
5.93656e-05
5.69695e-05
5.39308e-05
5.09372e-05
3.00304e-05
7.00959e-05
8.16791e-05
5.66418e-05
5.08847e-05
4.46198e-05
4.02112e-05
3.79459e-05
3.66631e-05
3.57541e-05
3.50069e-05
3.42731e-05
3.36098e-05
3.30638e-05
3.26576e-05
3.23927e-05
3.22657e-05
3.2274e-05
3.24175e-05
3.27001e-05
3.31242e-05
3.36857e-05
3.43623e-05
3.51033e-05
3.58388e-05
3.67011e-05
3.79566e-05
4.02112e-05
4.46102e-05
5.0752e-05
5.62396e-05
8.13729e-05
7.85181e-05
5.9823e-05
4.90152e-05
3.6961e-05
3.01149e-05
2.70785e-05
2.60559e-05
2.5725e-05
2.55182e-05
2.5238e-05
2.49827e-05
2.47814e-05
2.464e-05
2.45537e-05
2.45153e-05
2.45208e-05
2.45702e-05
2.46678e-05
2.48207e-05
2.50332e-05
2.53004e-05
2.55909e-05
2.58002e-05
2.61159e-05
2.71298e-05
3.01901e-05
3.69637e-05
4.88648e-05
5.95092e-05
7.83432e-05
7.72502e-05
5.80493e-05
4.38803e-05
3.16461e-05
2.55566e-05
2.32905e-05
2.24748e-05
2.23202e-05
2.2369e-05
2.24316e-05
2.2477e-05
2.25141e-05
2.25506e-05
2.25844e-05
2.26065e-05
2.26129e-05
2.26037e-05
2.25826e-05
2.25591e-05
2.25368e-05
2.25089e-05
2.24656e-05
2.2434e-05
2.25991e-05
2.34058e-05
2.56148e-05
3.16735e-05
4.38329e-05
5.7854e-05
7.71845e-05
7.65065e-05
5.65817e-05
3.86781e-05
2.80469e-05
2.36886e-05
2.20842e-05
2.18125e-05
2.1964e-05
2.22089e-05
2.24296e-05
2.25991e-05
2.27246e-05
2.28166e-05
2.28803e-05
2.2916e-05
2.29232e-05
2.29022e-05
2.28535e-05
2.27776e-05
2.26701e-05
2.25212e-05
2.23232e-05
2.20991e-05
2.19586e-05
2.22108e-05
2.37832e-05
2.81011e-05
3.86871e-05
5.64654e-05
7.65072e-05
7.59496e-05
5.4593e-05
3.46713e-05
2.59304e-05
2.2658e-05
2.1902e-05
2.20439e-05
2.23864e-05
2.27237e-05
2.30021e-05
2.32142e-05
2.33683e-05
2.34763e-05
2.35468e-05
2.35847e-05
2.35921e-05
2.35692e-05
2.3514e-05
2.34224e-05
2.32856e-05
2.3092e-05
2.28317e-05
2.25084e-05
2.21696e-05
2.20162e-05
2.2743e-05
2.5991e-05
3.47008e-05
5.45872e-05
7.59654e-05
7.55124e-05
5.22981e-05
3.21487e-05
2.46609e-05
2.21893e-05
2.20239e-05
2.24271e-05
2.28904e-05
2.32865e-05
2.35943e-05
2.38209e-05
2.39813e-05
2.40902e-05
2.4159e-05
2.41951e-05
2.42019e-05
2.41795e-05
2.41246e-05
2.403e-05
2.38841e-05
2.36714e-05
2.33755e-05
2.29861e-05
2.25201e-05
2.2102e-05
2.22411e-05
2.46895e-05
3.22165e-05
5.23009e-05
7.55322e-05
7.49982e-05
5.00289e-05
3.04685e-05
2.37634e-05
2.2021e-05
2.22323e-05
2.27909e-05
2.33244e-05
2.37535e-05
2.40749e-05
2.43047e-05
2.44627e-05
2.45668e-05
2.46306e-05
2.46631e-05
2.46689e-05
2.46478e-05
2.45954e-05
2.45026e-05
2.43552e-05
2.41347e-05
2.38195e-05
2.33912e-05
2.28505e-05
2.22742e-05
2.20388e-05
2.37724e-05
3.05272e-05
5.00282e-05
7.50432e-05
7.45675e-05
4.80373e-05
2.93369e-05
2.32737e-05
2.20779e-05
2.24767e-05
2.3109e-05
2.36727e-05
2.41128e-05
2.44346e-05
2.46592e-05
2.48095e-05
2.49055e-05
2.49626e-05
2.49909e-05
2.49953e-05
2.49759e-05
2.49274e-05
2.48394e-05
2.46961e-05
2.44767e-05
2.41569e-05
2.37142e-05
2.31413e-05
2.24929e-05
2.20758e-05
2.32699e-05
2.93804e-05
4.80334e-05
7.46162e-05
7.42305e-05
4.64173e-05
2.8566e-05
2.30266e-05
2.22163e-05
2.27161e-05
2.33767e-05
2.39446e-05
2.43794e-05
2.46917e-05
2.49052e-05
2.50444e-05
2.51307e-05
2.51805e-05
2.52043e-05
2.52075e-05
2.519e-05
2.51462e-05
2.50651e-05
2.49299e-05
2.47185e-05
2.44055e-05
2.39661e-05
2.3389e-05
2.2715e-05
2.22018e-05
2.30149e-05
2.85962e-05
4.64111e-05
7.42813e-05
7.39756e-05
4.51829e-05
2.80487e-05
2.29111e-05
2.23666e-05
2.29241e-05
2.35912e-05
2.41501e-05
2.45713e-05
2.4869e-05
2.50684e-05
2.51954e-05
2.52718e-05
2.53143e-05
2.5334e-05
2.53362e-05
2.53207e-05
2.52819e-05
2.52085e-05
2.50833e-05
2.48838e-05
2.45839e-05
2.41575e-05
2.359e-05
2.29118e-05
2.23447e-05
2.28944e-05
2.80681e-05
4.51752e-05
7.40286e-05
7.37911e-05
4.43057e-05
2.77121e-05
2.2861e-05
2.2494e-05
2.30862e-05
2.37514e-05
2.42977e-05
2.47033e-05
2.49857e-05
2.51716e-05
2.52871e-05
2.53547e-05
2.53911e-05
2.54073e-05
2.54087e-05
2.53951e-05
2.53608e-05
2.52946e-05
2.51793e-05
2.49922e-05
2.47067e-05
2.42956e-05
2.37417e-05
2.30672e-05
2.24678e-05
2.28406e-05
2.77207e-05
4.42983e-05
7.38466e-05
7.36696e-05
4.37493e-05
2.75102e-05
2.28404e-05
2.25833e-05
2.3196e-05
2.38578e-05
2.43932e-05
2.47862e-05
2.50565e-05
2.52317e-05
2.53386e-05
2.53996e-05
2.54315e-05
2.54452e-05
2.54461e-05
2.54339e-05
2.54031e-05
2.53425e-05
2.5235e-05
2.50579e-05
2.47841e-05
2.43858e-05
2.38434e-05
2.31738e-05
2.25552e-05
2.28186e-05
2.75144e-05
4.37425e-05
7.37273e-05
7.36076e-05
4.34818e-05
2.74174e-05
2.28347e-05
2.26296e-05
2.32521e-05
2.39118e-05
2.44411e-05
2.48272e-05
2.50907e-05
2.526e-05
2.53621e-05
2.54195e-05
2.5449e-05
2.54614e-05
2.5462e-05
2.54506e-05
2.54218e-05
2.53644e-05
2.52612e-05
2.50898e-05
2.48227e-05
2.44316e-05
2.38957e-05
2.3229e-05
2.26014e-05
2.28127e-05
2.74201e-05
4.3475e-05
7.36662e-05
7.36034e-05
4.34835e-05
2.7419e-05
2.28367e-05
2.26318e-05
2.32545e-05
2.39143e-05
2.44438e-05
2.48297e-05
2.5093e-05
2.52621e-05
2.53639e-05
2.5421e-05
2.54502e-05
2.54625e-05
2.54631e-05
2.54519e-05
2.54233e-05
2.53661e-05
2.52634e-05
2.50922e-05
2.48255e-05
2.44347e-05
2.38992e-05
2.32325e-05
2.26049e-05
2.28156e-05
2.74219e-05
4.34769e-05
7.36616e-05
7.36572e-05
4.37543e-05
2.7515e-05
2.28464e-05
2.25901e-05
2.32035e-05
2.38658e-05
2.44013e-05
2.4794e-05
2.50636e-05
2.5238e-05
2.5344e-05
2.54041e-05
2.54354e-05
2.54487e-05
2.54495e-05
2.54377e-05
2.54075e-05
2.53478e-05
2.52413e-05
2.50654e-05
2.47927e-05
2.43954e-05
2.38538e-05
2.31845e-05
2.25657e-05
2.28274e-05
2.75199e-05
4.37485e-05
7.37132e-05
7.37706e-05
4.43137e-05
2.77206e-05
2.28714e-05
2.25059e-05
2.30993e-05
2.37653e-05
2.43118e-05
2.47169e-05
2.49982e-05
2.51825e-05
2.52964e-05
2.53626e-05
2.53978e-05
2.54134e-05
2.54147e-05
2.54015e-05
2.53683e-05
2.53035e-05
2.51899e-05
2.50047e-05
2.47211e-05
2.43117e-05
2.37592e-05
2.30856e-05
2.2486e-05
2.2856e-05
2.77302e-05
4.43083e-05
7.38229e-05
7.39475e-05
4.51933e-05
2.80625e-05
2.29265e-05
2.23844e-05
2.29438e-05
2.36122e-05
2.41714e-05
2.45916e-05
2.48874e-05
2.50846e-05
2.52091e-05
2.52833e-05
2.53242e-05
2.53429e-05
2.53449e-05
2.533e-05
2.52925e-05
2.52209e-05
2.50981e-05
2.49013e-05
2.46041e-05
2.41803e-05
2.36149e-05
2.29383e-05
2.23714e-05
2.29174e-05
2.80823e-05
4.51886e-05
7.39951e-05
7.41957e-05
4.64293e-05
2.85857e-05
2.30476e-05
2.2241e-05
2.2744e-05
2.34063e-05
2.39743e-05
2.44076e-05
2.47172e-05
2.49273e-05
2.50631e-05
2.51465e-05
2.5194e-05
2.52165e-05
2.52193e-05
2.52024e-05
2.51601e-05
2.50812e-05
2.49489e-05
2.47409e-05
2.44314e-05
2.39954e-05
2.34215e-05
2.27501e-05
2.2238e-05
2.30464e-05
2.86151e-05
4.64272e-05
7.42383e-05
7.4527e-05
4.80495e-05
2.93637e-05
2.33009e-05
2.21113e-05
2.25145e-05
2.31492e-05
2.37126e-05
2.415e-05
2.44678e-05
2.46878e-05
2.48337e-05
2.4926e-05
2.49803e-05
2.50069e-05
2.50108e-05
2.49918e-05
2.49448e-05
2.48593e-05
2.47192e-05
2.45036e-05
2.4188e-05
2.37495e-05
2.31807e-05
2.25362e-05
2.21215e-05
2.331e-05
2.94042e-05
4.80512e-05
7.45642e-05
7.49539e-05
5.00406e-05
3.05037e-05
2.37973e-05
2.20642e-05
2.22818e-05
2.28434e-05
2.33758e-05
2.38008e-05
2.41165e-05
2.43402e-05
2.44927e-05
2.45924e-05
2.4653e-05
2.46836e-05
2.46885e-05
2.46677e-05
2.46167e-05
2.45263e-05
2.43823e-05