/*--------------------------------*- C++ -*----------------------------------*\
| =========                 |                                                 |
| \\      /  F ield         | OpenFOAM: The Open Source CFD Toolbox           |
|  \\    /   O peration     | Version:  2312                                  |
|   \\  /    A nd           | Website:  www.openfoam.com                      |
|    \\/     M anipulation  |                                                 |
\*---------------------------------------------------------------------------*/
FoamFile
{
    version     2.0;
    format      ascii;
    arch        "LSB;label=32;scalar=64";
    class       volScalarField;
    location    "800";
    object      nut;
}
// * * * * * * * * * * * * * * * * * * * * * * * * * * * * * * * * * * * * * //

dimensions      [0 2 -1 0 0 0 0];

internalField   nonuniform List<scalar> 
27000
(
3.94559e-06
6.69898e-06
9.36453e-06
1.1757e-05
1.40843e-05
1.62568e-05
1.82291e-05
1.98954e-05
2.13291e-05
2.25547e-05
2.35735e-05
2.43867e-05
2.49952e-05
2.53977e-05
2.55976e-05
2.55983e-05
2.53997e-05
2.49979e-05
2.43901e-05
2.35774e-05
2.25587e-05
2.13328e-05
1.98983e-05
1.82307e-05
1.62565e-05
1.40813e-05
1.1751e-05
9.35608e-06
6.6909e-06
3.94111e-06
5.74126e-06
1.27119e-06
5.14766e-06
9.06905e-06
1.31368e-05
1.69905e-05
2.06178e-05
2.39831e-05
2.70278e-05
2.97311e-05
3.20598e-05
3.39779e-05
3.54516e-05
3.64536e-05
3.69621e-05
3.6958e-05
3.64423e-05
3.5436e-05
3.39597e-05
3.20404e-05
2.97121e-05
2.70111e-05
2.39715e-05
2.0615e-05
1.69887e-05
1.31335e-05
9.06474e-06
5.14084e-06
1.26686e-06
5.73584e-06
9.21446e-06
7.10497e-06
1.46618e-05
2.63424e-05
3.69707e-05
4.62267e-05
5.46296e-05
6.24558e-05
6.95479e-05
7.57932e-05
8.11094e-05
8.5432e-05
8.87188e-05
9.0933e-05
9.20487e-05
9.20453e-05
9.09272e-05
8.87245e-05
8.54622e-05
8.11681e-05
7.58834e-05
6.967e-05
6.26069e-05
5.48112e-05
4.63974e-05
3.71179e-05
2.64741e-05
1.4722e-05
7.08117e-06
9.20743e-06
1.21515e-05
1.08359e-05
2.63707e-05
5.30837e-05
7.84509e-05
9.64133e-05
0.000109812
0.000120717
0.000129815
0.000137326
0.000143452
0.000148268
0.000151838
0.000154201
0.000155383
0.000155393
0.000154237
0.000151914
0.0001484
0.000143645
0.000137577
0.000130108
0.000121031
0.000110116
9.66869e-05
7.87353e-05
5.33906e-05
2.65297e-05
1.08235e-05
1.2148e-05
1.49276e-05
1.44774e-05
3.72153e-05
7.67414e-05
0.000113586
0.00013925
0.000155998
0.000167758
0.000176458
0.000182749
0.00018765
0.000191363
0.000194041
0.000195781
0.000196646
0.000196664
0.00019584
0.000194149
0.000191529
0.000187872
0.000183007
0.000176706
0.000168022
0.000156267
0.000139525
0.000113919
7.70991e-05
3.7394e-05
1.44687e-05
1.49283e-05
1.74986e-05
1.84073e-05
4.80095e-05
9.58365e-05
0.000138325
0.000167671
0.000185552
0.000196819
0.000204218
0.000209171
0.000212603
0.000215012
0.000216663
0.000217702
0.000218212
0.000218229
0.000217757
0.000216761
0.000215154
0.000212781
0.000209368
0.00020442
0.000197039
0.000185831
0.000167973
0.000138667
9.6175e-05
4.81723e-05
1.83973e-05
1.75033e-05
1.98395e-05
2.25239e-05
5.87629e-05
0.000112026
0.000156287
0.00018554
0.000203078
0.000213307
0.000219339
0.000222956
0.00022517
0.00022655
0.000227408
0.000227913
0.000228153
0.000228167
0.000227956
0.000227482
0.000226653
0.000225295
0.000223092
0.000219481
0.000213466
0.000203272
0.00018578
0.000156561
0.000112285
5.88436e-05
2.24997e-05
1.98476e-05
2.19348e-05
2.66923e-05
6.91754e-05
0.000125957
0.0001703
0.000197712
0.000213608
0.000222389
0.000227122
0.000229632
0.000230942
0.000231613
0.000231947
0.000232108
0.000232176
0.000232186
0.000232139
0.000231998
0.000231681
0.000231022
0.000229717
0.00022721
0.000222486
0.000213725
0.000197849
0.000170414
0.0001261
6.91944e-05
2.66587e-05
2.19461e-05
2.37529e-05
3.0792e-05
7.88996e-05
0.00013783
0.000181232
0.000206321
0.000220178
0.000227407
0.000230979
0.000232628
0.000233308
0.000233527
0.000233551
0.000233516
0.000233489
0.000233496
0.000233537
0.000233583
0.000233568
0.000233352
0.000232671
0.000231019
0.000227446
0.000220218
0.000206347
0.000181186
0.000137861
7.88543e-05
3.07435e-05
2.37695e-05
2.53068e-05
3.46704e-05
8.77373e-05
0.000147771
0.000188944
0.000212245
0.000224326
0.000230197
0.000232823
0.000233836
0.000234101
0.000234053
0.000233913
0.000233784
0.000233712
0.000233716
0.000233795
0.00023393
0.000234072
0.000234116
0.000233843
0.00023282
0.000230186
0.000224309
0.000212222
0.000188914
0.000147728
8.76372e-05
3.46109e-05
2.53256e-05
2.65997e-05
3.81696e-05
9.54762e-05
0.000156106
0.000195337
0.000216564
0.000227032
0.000231775
0.000233669
0.000234235
0.00023424
0.000234051
0.000233838
0.000233674
0.000233588
0.00023359
0.000233678
0.000233842
0.00023405
0.00023423
0.000234211
0.00023363
0.000231722
0.000226968
0.000216493
0.000195256
0.000155989
9.53317e-05
3.81023e-05
2.66198e-05
2.76323e-05
4.11507e-05
0.000101896
0.000162776
0.00020032
0.000219738
0.000228846
0.000232692
0.000234042
0.000234305
0.000234156
0.0002339
0.000233666
0.0002335
0.000233415
0.000233414
0.000233497
0.000233658
0.000233883
0.000234124
0.000234255
0.000233972
0.000232602
0.00022874
0.000219618
0.000200179
0.000162596
0.000101718
4.1077e-05
2.76534e-05
2.84053e-05
4.34963e-05
0.000106841
0.000167798
0.000203962
0.000221972
0.000230045
0.000233231
0.000234201
0.000234267
0.000234032
0.000233751
0.00023352
0.000233364
0.000233286
0.000233284
0.000233356
0.000233503
0.000233721
0.000233983
0.000234196
0.000234105
0.000233112
0.000229904
0.00022181
0.000203767
0.000167546
0.000106636
4.34176e-05
2.84271e-05
2.89197e-05
4.51138e-05
0.0001102
0.000171186
0.00020635
0.000223397
0.000230779
0.000233535
0.000234265
0.000234216
0.000233936
0.00023365
0.000233428
0.000233285
0.000233214
0.00023321
0.000233273
0.000233405
0.00023361
0.000233876
0.00023413
0.000234153
0.000233396
0.000230615
0.000223207
0.000206122
0.000170903
0.00010998
4.5032e-05
2.89418e-05
2.91759e-05
4.59396e-05
0.000111899
0.000172884
0.000207531
0.000224091
0.000231128
0.000233673
0.000234289
0.000234186
0.000233889
0.000233602
0.000233388
0.000233252
0.000233186
0.000233181
0.000233238
0.000233361
0.000233558
0.000233823
0.000234094
0.000234168
0.000233525
0.000230954
0.000223889
0.000207292
0.000172593
0.000111675
4.58563e-05
2.91982e-05
2.91745e-05
4.59412e-05
0.000111907
0.00017289
0.000207534
0.000224093
0.00023113
0.000233676
0.000234292
0.000234189
0.000233893
0.000233607
0.000233393
0.000233257
0.00023319
0.000233186
0.000233243
0.000233366
0.000233564
0.000233828
0.000234099
0.000234173
0.000233529
0.000230957
0.000223892
0.000207297
0.000172602
0.000111684
4.58583e-05
2.91965e-05
2.89154e-05
4.51185e-05
0.000110221
0.000171203
0.00020636
0.000223403
0.000230784
0.000233541
0.000234274
0.000234226
0.000233948
0.000233662
0.000233441
0.000233298
0.000233227
0.000233224
0.000233286
0.000233419
0.000233625
0.00023389
0.000234144
0.000234165
0.000233406
0.000230624
0.000223217
0.000206139
0.000170929
0.000110008
4.50375e-05
2.89369e-05
2.83986e-05
4.35035e-05
0.000106877
0.000167827
0.000203982
0.000221985
0.000230055
0.000233242
0.000234213
0.000234282
0.000234048
0.000233769
0.000233538
0.000233382
0.000233305
0.000233303
0.000233375
0.000233523
0.000233742
0.000234004
0.000234216
0.000234123
0.000233127
0.000229917
0.000221826
0.000203793
0.00016759
0.000106681
4.34262e-05
2.84192e-05
2.76235e-05
4.11594e-05
0.000101948
0.000162829
0.000200356
0.000219759
0.000228861
0.000232706
0.000234058
0.000234322
0.000234174
0.000233918
0.000233684
0.000233518
0.000233433
0.000233433
0.000233517
0.00023368
0.000233906
0.000234148
0.000234278
0.000233993
0.00023262
0.000228756
0.000219638
0.000200215
0.000162656
0.000101779
4.10879e-05
2.76427e-05
2.65893e-05
3.81784e-05
9.55413e-05
0.000156182
0.000195391
0.000216597
0.000227053
0.000231792
0.000233684
0.00023425
0.000234255
0.000234065
0.000233851
0.000233687
0.000233601
0.000233604
0.000233694
0.00023386
0.000234071
0.000234252
0.000234233
0.00023365
0.00023174
0.000226987
0.000216519
0.000195301
0.000156063
9.54059e-05
3.81144e-05
2.66068e-05
2.52954e-05
3.46778e-05
8.78137e-05
0.000147872
0.000189017
0.000212291
0.000224356
0.000230217
0.000232838
0.000233848
0.00023411
0.00023406
0.000233917
0.000233786
0.000233714
0.00023372
0.000233802
0.00023394
0.000234086
0.000234133
0.000233862
0.000232839
0.000230205
0.000224331
0.000212256
0.000188973
0.000147815
8.77187e-05
3.46226e-05
2.53107e-05
2.37412e-05
3.07955e-05
7.89829e-05
0.000137955
0.000181308
0.000206386
0.000220222
0.000227434
0.000230996
0.000232638
0.000233312
0.000233526
0.000233545
0.000233507
0.000233479
0.000233488
0.000233532
0.000233585
0.000233575
0.000233366
0.000232688
0.000231038
0.000227468
0.000220248
0.000206397
0.000181268
0.000137962
7.89356e-05
3.07512e-05
2.37537e-05
2.19249e-05
2.66897e-05
6.92674e-05
0.000126125
0.000170443
0.000197818
0.000213677
0.000222432
0.000227149
0.000229648
0.000230948
0.00023161
0.000231935
0.00023209
0.000232156
0.000232168
0.000232126
0.000231994
0.000231687
0.000231037
0.00022974
0.000227239
0.000222521
0.00021377
0.000197918
0.000170522
0.000126219
6.92737e-05
2.66583e-05
2.19327e-05
1.983e-05
2.25204e-05
5.88727e-05
0.000112245
0.000156498
0.000185679
0.000203184
0.000213382
0.000219393
0.000222996
0.000225196
0.000226561
0.000227404
0.000227898
0.000228133
0.000228149
0.000227947
0.000227485
0.000226671
0.000225328
0.000223138
0.000219537
0.00021353
0.000203346
0.000185873
0.0001567
0.000112432
5.89308e-05
2.24976e-05
1.98347e-05
1.74895e-05
1.84069e-05
4.81445e-05
9.60924e-05
0.000138591
0.000167885
0.000185721
0.00019695
0.000204323
0.000209261
0.000212674
0.00021506
0.000216687
0.00021771
0.000218213
0.000218233
0.000217772
0.000216791
0.000215205
0.000212855
0.000209462
0.000204528
0.000197159
0.000185945
0.000168134
0.000138855
9.63469e-05
4.82676e-05
1.83961e-05
1.74912e-05
1.4919e-05
1.44714e-05
3.73374e-05
7.70064e-05
0.000113882
0.000139513
0.000156229
0.000167947
0.00017662
0.000182911
0.000187787
0.000191467
0.000194114
0.000195835
0.000196693
0.000196715
0.000195904
0.000194233
0.000191638
0.00018801
0.00018317
0.000176882
0.000168218
0.000156491
0.000139769
0.000114163
7.7287e-05
3.74743e-05
1.44614e-05
1.49176e-05
1.21434e-05
1.08243e-05
2.64631e-05
5.33073e-05
7.87081e-05
9.66724e-05
0.000110075
0.000120969
0.000130047
0.000137532
0.000143626
0.00014841
0.000151952
0.000154301
0.000155481
0.0001555
0.000154359
0.000152054
0.000148563
0.000143832
0.000137789
0.000130339
0.00012128
0.000110376
9.69435e-05
7.89718e-05
5.35629e-05
2.65869e-05
1.08115e-05
1.2139e-05
9.20762e-06
7.0916e-06
1.46876e-05
2.64299e-05
3.70882e-05
4.6369e-05
5.47808e-05
6.25936e-05
6.96771e-05
7.59119e-05
8.12159e-05
8.55258e-05
8.88004e-05
9.10161e-05
9.21397e-05
9.21469e-05
9.10395e-05
8.88438e-05
8.55923e-05
8.13083e-05
7.60312e-05
6.98215e-05
6.2759e-05
5.49702e-05
4.65395e-05
3.72306e-05
2.65481e-05
1.47368e-05
7.07297e-06
9.20129e-06
5.73663e-06
1.26859e-06
5.13864e-06
9.06151e-06
1.31317e-05
1.69886e-05
2.06172e-05
2.39789e-05
2.70223e-05
2.97252e-05
3.2054e-05
3.39727e-05
3.5448e-05
3.64575e-05
3.69709e-05
3.69694e-05
3.64537e-05
3.54429e-05
3.39669e-05
3.2048e-05
2.97198e-05
2.70182e-05
2.39773e-05
2.06213e-05
1.69916e-05
1.3131e-05
9.05811e-06
5.13129e-06
1.26479e-06
5.73148e-06
3.94258e-06
6.69343e-06
9.35763e-06
1.17498e-05
1.40767e-05
1.62488e-05
1.82206e-05
1.98863e-05
2.13194e-05
2.25442e-05
2.35623e-05
2.43745e-05
2.49815e-05
2.53806e-05
2.55792e-05
2.55794e-05
2.5381e-05
2.49821e-05
2.43751e-05
2.35627e-05
2.25444e-05
2.13191e-05
1.98853e-05
1.82185e-05
1.62456e-05
1.40719e-05
1.17432e-05
9.34975e-06
6.68634e-06
3.9387e-06
3.575e-06
6.10673e-06
8.70139e-06
1.10557e-05
1.34072e-05
1.56305e-05
1.76823e-05
1.94527e-05
2.09983e-05
2.23276e-05
2.34329e-05
2.43187e-05
2.49847e-05
2.54348e-05
2.56626e-05
2.56621e-05
2.54336e-05
2.49839e-05
2.43177e-05
2.34315e-05
2.2326e-05
2.09957e-05
1.94506e-05
1.7684e-05
1.56369e-05
1.34182e-05
1.10713e-05
8.71918e-06
6.12401e-06
3.58483e-06
5.14751e-06
1.65148e-06
7.53093e-06
1.11653e-05
1.47734e-05
1.77981e-05
2.03704e-05
2.27835e-05
2.48895e-05
2.66878e-05
2.82027e-05
2.943e-05
3.03586e-05
3.09794e-05
3.12865e-05
3.12861e-05
3.0977e-05
3.03518e-05
2.94178e-05
2.81869e-05
2.66716e-05
2.48763e-05
2.27835e-05
2.04518e-05
1.78902e-05
1.48523e-05
1.12219e-05
7.55364e-06
1.67566e-06
5.16139e-06
8.71357e-06
1.03334e-05
1.31515e-05
1.65876e-05
2.17412e-05
2.72248e-05
3.2393e-05
3.69708e-05
4.11528e-05
4.48687e-05
4.80333e-05
5.05956e-05
5.25023e-05
5.37805e-05
5.44341e-05
5.44637e-05
5.38607e-05
5.25851e-05
5.06428e-05
4.80643e-05
4.48847e-05
4.11463e-05
3.69329e-05
3.22856e-05
2.71176e-05
2.16591e-05
1.65303e-05
1.31466e-05
1.04206e-05
8.72925e-06
1.15845e-05
1.35707e-05
1.77298e-05
2.5226e-05
3.5137e-05
4.58605e-05
5.56738e-05
6.44408e-05
7.23176e-05
7.94245e-05
8.54266e-05
9.02068e-05
9.37372e-05
9.60703e-05
9.72529e-05
9.73058e-05
9.62167e-05
9.39375e-05
9.04211e-05
8.56341e-05
7.95913e-05
7.24044e-05
6.44144e-05
5.55474e-05
4.56944e-05
3.4967e-05
2.51163e-05
1.7727e-05
1.36604e-05
1.15941e-05
1.44209e-05
1.60552e-05
2.25884e-05
3.51335e-05
5.31505e-05
7.22485e-05
8.87477e-05
0.000102092
0.000113053
0.000122467
0.000130047
0.000135855
0.000139972
0.000142627
0.000143943
0.000143973
0.000142707
0.000140076
0.000135953
0.000130114
0.000122479
0.000113004
0.000101926
8.84766e-05
7.19569e-05
5.29443e-05
3.50193e-05
2.25093e-05
1.61379e-05
1.44221e-05
1.71228e-05
1.82515e-05
2.84005e-05
4.63048e-05
7.18262e-05
9.83546e-05
0.000120953
0.000137535
0.000149637
0.000158965
0.000166182
0.000171584
0.000175392
0.000177815
0.000179
0.000179014
0.000177852
0.000175436
0.000171618
0.00016619
0.000158935
0.000149569
0.000137411
0.000120685
9.81027e-05
7.16473e-05
4.62411e-05
2.83125e-05
1.83306e-05
1.71176e-05
1.9632e-05
2.05816e-05
3.38913e-05
5.7824e-05
8.96947e-05
0.000121122
0.000145995
0.000163704
0.000176055
0.000184847
0.000191226
0.000195815
0.000198978
0.000200962
0.000201921
0.000201928
0.000200981
0.000199002
0.000195836
0.00019124
0.000184855
0.000176056
0.000163682
0.00014592
0.000121001
8.96839e-05
5.79036e-05
3.39112e-05
2.05933e-05
1.96246e-05
2.19231e-05
2.30681e-05
3.9083e-05
6.87351e-05
0.000105374
0.000139017
0.00016423
0.000181833
0.000193733
0.000201765
0.000207247
0.00021099
0.000213477
0.000214999
0.000215723
0.000215728
0.000215011
0.000213494
0.000211012
0.000207276
0.000201807
0.000193786
0.000181887
0.000164269
0.000139066
0.000105549
6.89931e-05
3.91461e-05
2.30706e-05
2.19146e-05
2.40189e-05
2.53966e-05
4.40493e-05
7.89484e-05
0.000118782
0.00015282
0.000177468
0.000194225
0.000205229
0.000212351
0.000216955
0.00021993
0.000221816
0.00022293
0.000223449
0.000223451
0.000222936
0.000221827
0.00021995
0.000216991
0.000212408
0.000205309
0.000194323
0.000177585
0.000152997
0.000119137
7.93219e-05
4.41413e-05
2.54057e-05
2.40041e-05
2.58613e-05
2.74888e-05
4.85299e-05
8.77802e-05
0.000130195
0.000163637
0.000187162
0.000202729
0.000212644
0.000218812
0.000222602
0.000224914
0.0002263
0.000227082
0.000227435
0.000227435
0.000227084
0.000226306
0.000224931
0.000222639
0.000218875
0.000212737
0.000202851
0.000187317
0.000163848
0.000130501
8.81847e-05
4.86368e-05
2.75037e-05
2.58457e-05
2.74242e-05
2.93112e-05
5.24085e-05
9.49911e-05
0.000138694
0.000171768
0.000194195
0.000208567
0.000217416
0.000222698
0.000225779
0.000227544
0.000228534
0.00022906
0.000229287
0.000229286
0.00022906
0.000228539
0.000227561
0.000225818
0.000222766
0.000217519
0.000208707
0.000194373
0.000171999
0.000139011
9.53998e-05
5.2522e-05
2.93305e-05
2.74085e-05
2.86918e-05
3.08271e-05
5.5623e-05
0.0001007
0.000145101
0.000177727
0.000199197
0.000212536
0.000220468
0.000225006
0.000227513
0.000228852
0.000229544
0.000229882
0.000230019
0.000230019
0.000229884
0.000229552
0.000228875
0.000227559
0.000225085
0.000220584
0.000212692
0.000199394
0.000177974
0.000145421
0.000101089
5.57381e-05
3.08502e-05
2.86762e-05
2.96524e-05
3.20009e-05
5.81163e-05
0.000105002
0.000149764
0.000181938
0.000202628
0.000215154
0.000222377
0.000226349
0.000228429
0.000229461
0.000229943
0.000230152
0.000230228
0.000230229
0.000230157
0.000229957
0.000229491
0.000228485
0.000226439
0.000222506
0.000215324
0.000202837
0.00018219
0.000150068
0.000105341
5.82313e-05
3.20274e-05
2.96367e-05
3.02976e-05
3.28024e-05
5.98299e-05
0.000107934
0.000152848
0.000184651
0.000204782
0.000216747
0.000223489
0.000227084
0.000228883
0.000229718
0.000230068
0.000230196
0.000230235
0.000230237
0.000230205
0.000230087
0.000229755
0.000228949
0.000227184
0.000223629
0.000216927
0.000204998
0.0001849
0.000153134
0.00010824
5.99405e-05
3.28308e-05
3.02818e-05
3.0622e-05
3.32079e-05
6.07009e-05
0.000109411
0.000154386
0.000185985
0.000205824
0.000217502
0.000224
0.000227405
0.000229065
0.000229802
0.000230089
0.000230179
0.0002302
0.000230203
0.00023019
0.000230112
0.000229846
0.000229137
0.000227512
0.000224146
0.000217686
0.000206041
0.00018623
0.000154661
0.000109701
6.08084e-05
3.32372e-05
3.06062e-05
3.06229e-05
3.32054e-05
6.06997e-05
0.00010941
0.000154388
0.000185986
0.000205824
0.000217499
0.000223995
0.000227397
0.000229056
0.000229791
0.000230076
0.000230165
0.000230186
0.000230189
0.000230176
0.0002301
0.000229835
0.000229128
0.000227505
0.000224141
0.000217683
0.00020604
0.000186229
0.000154657
0.000109694
6.08053e-05
3.32342e-05
3.06071e-05
3.03003e-05
3.27946e-05
5.98259e-05
0.000107932
0.000152853
0.000184656
0.000204783
0.000216741
0.000223475
0.000227062
0.000228855
0.000229684
0.000230031
0.000230157
0.000230195
0.000230198
0.000230167
0.000230052
0.000229725
0.000228923
0.000227165
0.000223616
0.00021692
0.000204995
0.000184896
0.000153122
0.000108217
5.99311e-05
3.2822e-05
3.02847e-05
2.96568e-05
3.19883e-05
5.81095e-05
0.000105
0.000149773
0.000181948
0.00020263
0.000215146
0.000222356
0.000226317
0.000228387
0.000229411
0.000229887
0.000230092
0.000230167
0.000230168
0.000230099
0.000229904
0.000229445
0.000228446
0.000226411
0.000222488
0.000215315
0.000202834
0.000182184
0.000150049
0.000105303
5.82157e-05
3.20132e-05
2.96416e-05
2.86976e-05
3.08101e-05
5.56132e-05
0.000100706
0.000145115
0.000177741
0.000199202
0.000212528
0.000220446
0.00022497
0.000227464
0.000228793
0.000229478
0.000229811
0.000229946
0.000229947
0.000229815
0.00022949
0.00022882
0.000227514
0.000225052
0.000220565
0.000212684
0.000199393
0.000177968
0.000145394
0.000101033
5.57158e-05
3.08314e-05
2.8683e-05
2.74311e-05
2.92908e-05
5.23958e-05
9.50013e-05
0.000138709
0.000171782
0.000194202
0.000208564
0.000217398
0.000222665
0.000225732
0.000227486
0.000228468
0.000228988
0.000229213
0.000229213
0.000228991
0.000228476
0.000227507
0.000225774
0.000222736
0.000217503
0.000208703
0.000194374
0.00017199
0.000138973
9.53259e-05
5.24931e-05
2.9308e-05
2.74172e-05
2.5869e-05
2.74664e-05
4.85151e-05
8.77925e-05
0.000130204
0.000163646
0.000187171
0.000202733
0.000212638
0.000218793
0.00022257
0.00022487
0.000226247
0.000227024
0.000227374
0.000227375
0.000227026
0.000226255
0.000224888
0.000222606
0.000218855
0.00021273
0.000202855
0.000187319
0.000163829
0.000130445
8.80943e-05
4.8603e-05
2.74792e-05
2.5856e-05
2.40269e-05
2.53754e-05
4.40338e-05
7.89581e-05
0.000118786
0.000152818
0.000177478
0.000194242
0.000205241
0.000212352
0.000216945
0.00021991
0.000221789
0.000222898
0.000223414
0.000223416
0.000222903
0.000221798
0.000219927
0.000216976
0.000212405
0.000205318
0.000194339
0.000177591
0.000152965
0.000119033
7.92174e-05
4.41059e-05
2.53829e-05
2.40155e-05
2.19279e-05
2.30525e-05
3.90629e-05
6.87285e-05
0.000105339
0.000138995
0.000164238
0.00018186
0.000193762
0.000201788
0.000207262
0.000211
0.000213484
0.000215003
0.000215726
0.000215728
0.00021501
0.000213494
0.000211014
0.000207283
0.000201823
0.000193813
0.000181919
0.000164289
0.000139044
0.000105453
6.88951e-05
3.91095e-05
2.30548e-05
2.19218e-05
1.96369e-05
2.05729e-05
3.38561e-05
5.77919e-05
8.964e-05
0.000121079
0.00014599
0.000163729
0.000176088
0.00018488
0.000191261
0.000195854
0.000199023
0.000201008
0.000201966
0.000201969
0.000201017
0.000199032
0.000195859
0.000191261
0.00018488
0.000176093
0.000163726
0.000145955
0.000120993
8.96207e-05
5.78346e-05
3.38689e-05
2.05823e-05
1.96325e-05
1.71328e-05
1.82972e-05
2.83164e-05
4.62538e-05
7.1765e-05
9.82903e-05
0.000120906
0.000137539
0.000149656
0.000158996
0.00016623
0.000171654
0.000175477
0.000177908
0.000179091
0.000179097
0.000177921
0.000175488
0.000171652
0.000166205
0.000158947
0.000149591
0.00013745
0.000120739
9.81199e-05
7.16351e-05
4.61964e-05
2.82457e-05
1.8362e-05
1.71314e-05
1.44325e-05
1.60985e-05
2.25262e-05
3.51044e-05
5.31157e-05
7.22095e-05
8.87192e-05
0.000102081
0.000113082
0.000122512
0.000130121
0.000135968
0.00014011
0.000142775
0.000144086
0.000144097
0.000142802
0.000140142
0.000135988
0.000130102
0.000122452
0.000112988
0.000101928
8.85145e-05
7.20036e-05
5.2972e-05
3.50177e-05
2.24626e-05
1.61644e-05
1.44361e-05
1.15973e-05
1.36159e-05
1.77367e-05
2.51939e-05
3.51183e-05
4.58454e-05
5.56663e-05
6.44688e-05
7.23918e-05
7.9534e-05
8.55624e-05
9.03649e-05
9.39212e-05
9.62641e-05
9.74322e-05
9.74506e-05
9.63146e-05
9.39934e-05
9.04447e-05
8.56314e-05
7.95735e-05
7.23862e-05
6.44109e-05
5.55565e-05
4.5722e-05
3.49976e-05
2.51138e-05
1.77316e-05
1.3685e-05
1.16067e-05
8.72538e-06
1.03703e-05
1.3154e-05
1.65515e-05
2.16848e-05
2.71481e-05
3.23211e-05
3.69397e-05
4.11338e-05
4.48617e-05
4.804e-05
5.06233e-05
5.25781e-05
5.38802e-05
5.4529e-05
5.45318e-05
5.38854e-05
5.25814e-05
5.06222e-05
4.8032e-05
4.4844e-05
4.11032e-05
3.68931e-05
3.22223e-05
2.70653e-05
2.16237e-05
1.65074e-05
1.31449e-05
1.04307e-05
8.73811e-06
5.1564e-06
1.65929e-06
7.54234e-06
1.11901e-05
1.48117e-05
1.78434e-05
2.04076e-05
2.27613e-05
2.48545e-05
2.66511e-05
2.81657e-05
2.9393e-05
3.03217e-05
3.09361e-05
3.12397e-05
3.12376e-05
3.09294e-05
3.03097e-05
2.93766e-05
2.8146e-05
2.66298e-05
2.48347e-05
2.27526e-05
2.0464e-05
1.79097e-05
1.48689e-05
1.12302e-05
7.55764e-06
1.67879e-06
5.1678e-06
3.58051e-06
6.11607e-06
8.71244e-06
1.10674e-05
1.34189e-05
1.56419e-05
1.76926e-05
1.94618e-05
2.10072e-05
2.23334e-05
2.34386e-05
2.43248e-05
2.49922e-05
2.54479e-05
2.5677e-05
2.5677e-05
2.5448e-05
2.49925e-05
2.43253e-05
2.34392e-05
2.23343e-05
2.1009e-05
1.94645e-05
1.76981e-05
1.56505e-05
1.34303e-05
1.10814e-05
8.72715e-06
6.12968e-06
3.58833e-06
3.3649e-06
5.72611e-06
8.25006e-06
1.05818e-05
1.29276e-05
1.51466e-05
1.71832e-05
1.8925e-05
2.04402e-05
2.17543e-05
2.28653e-05
2.3761e-05
2.44364e-05
2.48854e-05
2.5109e-05
2.51084e-05
2.48839e-05
2.44333e-05
2.37569e-05
2.28603e-05
2.17488e-05
2.04352e-05
1.89198e-05
1.71753e-05
1.51359e-05
1.29147e-05
1.05676e-05
8.23644e-06
5.71285e-06
3.35732e-06
4.87271e-06
2.50308e-06
1.06654e-05
1.58937e-05
2.09621e-05
2.54908e-05
2.93722e-05
3.23664e-05
3.46454e-05
3.63536e-05
3.76248e-05
3.85601e-05
3.92248e-05
3.96556e-05
3.98716e-05
3.98777e-05
3.96743e-05
3.92563e-05
3.86037e-05
3.76793e-05
3.64181e-05
3.47179e-05
3.24371e-05
2.93734e-05
2.54624e-05
2.09218e-05
1.58589e-05
1.06533e-05
2.4716e-06
4.86148e-06
8.28499e-06
1.30379e-05
1.73193e-05
2.10331e-05
2.40132e-05
2.71442e-05
3.02292e-05
3.31992e-05
3.60345e-05
3.85128e-05
4.06201e-05
4.23398e-05
4.36682e-05
4.45732e-05
4.50384e-05
4.50565e-05
4.46278e-05
4.37726e-05
4.24995e-05
4.08165e-05
3.87356e-05
3.62689e-05
3.3416e-05
3.03729e-05
2.72221e-05
2.40517e-05
2.10574e-05
1.73105e-05
1.29549e-05
8.27067e-06
1.10598e-05
1.81651e-05
2.33104e-05
2.48493e-05
2.87258e-05
3.48545e-05
4.16226e-05
4.78913e-05
5.31686e-05
5.74363e-05
6.10642e-05
6.40741e-05
6.64135e-05
6.80128e-05
6.88239e-05
6.88249e-05
6.80161e-05
6.64227e-05
6.40925e-05
6.10934e-05
5.74867e-05
5.32511e-05
4.79958e-05
4.1676e-05
3.48397e-05
2.87612e-05
2.48652e-05
2.32818e-05
1.81019e-05
1.10485e-05
1.38004e-05
2.21352e-05
2.6428e-05
2.95579e-05
3.84565e-05
5.13981e-05
6.29536e-05
7.22922e-05
7.9873e-05
8.61157e-05
9.12585e-05
9.55787e-05
9.91094e-05
0.000101572
0.000102831
0.000102842
0.000101603
9.91586e-05
9.56437e-05
9.13517e-05
8.62737e-05
8.01245e-05
7.26196e-05
6.32898e-05
5.14998e-05
3.84043e-05
2.95811e-05
2.64722e-05
2.20969e-05
1.37948e-05
1.6431e-05
2.56201e-05
2.87182e-05
3.59086e-05
5.15279e-05
7.00022e-05
8.75946e-05
0.000101971
0.000113421
0.00012225
0.000129066
0.000134345
0.000138313
0.000140983
0.000142333
0.000142352
0.00014104
0.000138406
0.000134476
0.00012925
0.000122516
0.000113791
0.000102446
8.81988e-05
7.03718e-05
5.16439e-05
3.59916e-05
2.882e-05
2.56051e-05
1.64308e-05
1.89043e-05
2.83367e-05
3.116e-05
4.36858e-05
6.39604e-05
8.79415e-05
0.000111107
0.000129535
0.000142972
0.00015277
0.000159956
0.00016522
0.000168966
0.000171394
0.000172599
0.000172622
0.000171463
0.000169079
0.000165375
0.000160158
0.000153023
0.000143281
0.000129913
0.000111568
8.83741e-05
6.41439e-05
4.38044e-05
3.12849e-05
2.83854e-05
1.89058e-05
2.11882e-05
3.04194e-05
3.43389e-05
5.10989e-05
7.52801e-05
0.000104155
0.000130557
0.000150517
0.000164817
0.000174904
0.000181992
0.00018694
0.000190301
0.000192403
0.000193425
0.00019345
0.000192475
0.000190418
0.000187096
0.000182181
0.00017512
0.000165055
0.000150779
0.000130823
0.000104362
7.53455e-05
5.10709e-05
3.45201e-05
3.04689e-05
2.11904e-05
2.32281e-05
3.20713e-05
3.76754e-05
5.73648e-05
8.52616e-05
0.000118184
0.000145662
0.000165967
0.000180289
0.00019017
0.000196896
0.000201412
0.000204357
0.000206136
0.000206984
0.000207008
0.000206206
0.000204469
0.000201558
0.000197065
0.000190349
0.000180468
0.000166135
0.000145794
0.00011822
8.51642e-05
5.72632e-05
3.78473e-05
3.21049e-05
2.3234e-05
2.50219e-05
3.34205e-05
4.09417e-05
6.32852e-05
9.50302e-05
0.000129819
0.000157321
0.000177258
0.000191107
0.000200479
0.000206693
0.000210729
0.000213265
0.000214747
0.000215437
0.000215458
0.000214808
0.000213362
0.000210853
0.000206832
0.000200619
0.000191235
0.000177358
0.000157371
0.000129782
9.48869e-05
6.31448e-05
4.10907e-05
3.34387e-05
2.50288e-05
2.65519e-05
3.45286e-05
4.39242e-05
6.85685e-05
0.000103601
0.000138969
0.000166135
0.000185423
0.000198592
0.000207332
0.000212985
0.000216545
0.000218706
0.000219927
0.000220482
0.000220499
0.000219976
0.000218783
0.000216641
0.000213089
0.00020743
0.000198671
0.000185466
0.000166124
0.000138879
0.000103417
6.84097e-05
4.40463e-05
3.45344e-05
2.65596e-05
2.77996e-05
3.54258e-05
4.64731e-05
7.29897e-05
0.000110504
0.000145974
0.000172623
0.000191209
0.000203683
0.000211801
0.000216928
0.000220063
0.000221903
0.000222907
0.000223352
0.000223365
0.000222943
0.000221957
0.000220128
0.000216994
0.000211856
0.000203714
0.000191202
0.000172562
0.000145841
0.000110294
7.28235e-05
4.65644e-05
3.54219e-05
2.78081e-05
2.87492e-05
3.61135e-05
4.84475e-05
7.63597e-05
0.000115639
0.000151044
0.000177185
0.000195152
0.000207028
0.000214621
0.000219313
0.000222108
0.000223697
0.000224536
0.000224897
0.000224905
0.000224559
0.00022373
0.000222145
0.000219346
0.000214637
0.000207017
0.000195103
0.000177085
0.000150883
0.000115421
7.62062e-05
4.8485e-05
3.61025e-05
2.87585e-05
2.93885e-05
3.6582e-05
4.97729e-05
7.85761e-05
0.000119011
0.000154334
0.000180093
0.000197608
0.000209053
0.000216271
0.000220658
0.000223215
0.000224633
0.000225361
0.000225666
0.000225671
0.000225375
0.000224652
0.000223232
0.000220666
0.00021626
0.000209013
0.000197531
0.000179969
0.000154157
0.000118793
7.84284e-05
4.97989e-05
3.65681e-05
2.93985e-05
2.97098e-05
3.68218e-05
5.04479e-05
7.96906e-05
0.000120685
0.000155956
0.000181514
0.000198793
0.000210013
0.000217037
0.000221266
0.000223702
0.000225033
0.000225705
0.000225982
0.000225985
0.000225714
0.000225044
0.000223709
0.000221261
0.000217012
0.000209959
0.000198702
0.00018138
0.000155776
0.00012047
7.9545e-05
5.04705e-05
3.68067e-05
2.97201e-05
2.97091e-05
3.6825e-05
5.04501e-05
7.96977e-05
0.000120695
0.000155968
0.000181527
0.000198807
0.000210027
0.00021705
0.000221278
0.000223714
0.000225044
0.000225715
0.000225991
0.000225995
0.000225724
0.000225054
0.00022372
0.000221274
0.000217026
0.000209974
0.000198718
0.000181396
0.000155793
0.000120487
7.95569e-05
5.04729e-05
3.68105e-05
2.97193e-05
2.93863e-05
3.65916e-05
4.97799e-05
7.85974e-05
0.000119042
0.000154368
0.000180131
0.00019765
0.000209095
0.000216312
0.000220696
0.00022325
0.000224665
0.00022539
0.000225694
0.000225699
0.000225404
0.000224683
0.000223267
0.000220704
0.000216302
0.000209058
0.000197577
0.000180017
0.000154208
0.000118844
7.84642e-05
4.98064e-05
3.65793e-05
2.9396e-05
2.87456e-05
3.61296e-05
4.84613e-05
7.63951e-05
0.000115689
0.000151102
0.00017725
0.000195222
0.000207098
0.000214689
0.000219377
0.000222166
0.000223749
0.000224585
0.000224943
0.000224951
0.000224607
0.000223782
0.000222202
0.000219408
0.000214705
0.00020709
0.000195178
0.000177163
0.000150965
0.000115506
7.62666e-05
4.8498e-05
3.61208e-05
2.87544e-05
2.77949e-05
3.54486e-05
4.65023e-05
7.30335e-05
0.000110571
0.000146056
0.000172717
0.000191309
0.000203783
0.000211896
0.000217016
0.000220144
0.000221976
0.000222975
0.000223416
0.000223427
0.000223008
0.000222027
0.000220204
0.000217078
0.000211947
0.000203811
0.000191304
0.000172668
0.000145953
0.000110413
7.29101e-05
4.65847e-05
3.5447e-05
2.78026e-05
2.65464e-05
3.45577e-05
4.39702e-05
6.86216e-05
0.000103689
0.00013908
0.000166261
0.000185554
0.00019872
0.000207453
0.000213097
0.000216647
0.000218798
0.000220012
0.000220562
0.000220577
0.000220056
0.000218868
0.000216734
0.000213191
0.000207542
0.000198791
0.000185594
0.000166259
0.000139022
0.000103569
6.85202e-05
4.40741e-05
3.45654e-05
2.65529e-05
2.50159e-05
3.34551e-05
4.10056e-05
6.33459e-05
9.51482e-05
0.000129972
0.000157488
0.000177422
0.000191262
0.000200622
0.000206825
0.000210849
0.000213375
0.000214848
0.000215533
0.000215551
0.000214902
0.000213461
0.000210959
0.000206949
0.000200748
0.000191376
0.000177512
0.00015754
0.000129967
9.50762e-05
6.32723e-05
4.11253e-05
3.34738e-05
2.50212e-05
2.32221e-05
3.21103e-05
3.77556e-05
5.74325e-05
8.54388e-05
0.000118401
0.000145875
0.000166164
0.000180468
0.000190331
0.000197044
0.000201548
0.000204483
0.000206253
0.000207095
0.000207116