/*--------------------------------*- C++ -*----------------------------------*\
| =========                 |                                                 |
| \\      /  F ield         | OpenFOAM: The Open Source CFD Toolbox           |
|  \\    /   O peration     | Version:  2312                                  |
|   \\  /    A nd           | Website:  www.openfoam.com                      |
|    \\/     M anipulation  |                                                 |
\*---------------------------------------------------------------------------*/
FoamFile
{
    version     2.0;
    format      ascii;
    arch        "LSB;label=32;scalar=64";
    class       surfaceScalarField;
    location    "800";
    object      phi;
}
// * * * * * * * * * * * * * * * * * * * * * * * * * * * * * * * * * * * * * //

dimensions      [1 0 -1 0 0 0 0];

oriented        oriented;

internalField   nonuniform List<scalar> 
78300
(
-0.000147387
0.000356133
0.00755064
0.00256819
0.00135783
0.00976465
0.00244275
0.00476169
0.0150011
0.00266972
0.00529441
0.0196036
0.00287181
0.00589323
0.0241749
0.00301717
0.00640073
0.0284983
0.00307888
0.006853
0.032506
0.00303597
0.00723343
0.0361843
0.00287292
0.00754036
0.0395072
0.0025982
0.00778075
0.0424242
0.0022301
0.00796312
0.0448998
0.00178858
0.00809653
0.0469089
0.0012935
0.00818918
0.048432
0.000763155
0.00824792
0.0494548
0.000214813
0.00827709
0.0499682
-0.000334384
0.0082781
0.049968
-0.000867229
0.00825094
0.0494542
-0.00136606
0.00819389
0.048431
-0.0018118
0.00810221
0.0469075
-0.00218401
0.00796908
0.0448979
-0.00246256
0.00778661
0.0424222
-0.00262952
0.00754634
0.0395052
-0.00267892
0.00724174
0.0361825
-0.00263374
0.00686942
0.0325061
-0.00252155
0.0064314
0.0285008
-0.00237425
0.00594268
0.0241802
-0.00222556
0.00536462
0.0196117
-0.00244474
0.00484624
0.0150103
0.000192511
0.00142673
0.00977407
0.000391332
0.00756057
0.00332483
0.00432325
0.00972976
0.00549518
0.00415118
0.0179259
0.00638459
0.00742979
0.0249305
0.00647541
0.00826524
0.030724
0.00639324
0.0087754
0.035953
0.00620606
0.00915863
0.0407914
0.00593233
0.00947165
0.0452424
0.00555696
0.00973585
0.049278
0.00506686
0.00995069
0.0528735
0.0044632
0.0101159
0.056003
0.00375928
0.0102358
0.058642
0.00297377
0.0103186
0.0607721
0.00212696
0.0103728
0.0623802
0.00123907
0.0104059
0.0634573
0.000329776
0.0104229
0.0639974
-0.000582225
0.0104263
0.0639978
-0.00147814
0.010416
0.0634582
-0.00233811
0.0103896
0.0623814
-0.00314201
0.0103418
0.060773
-0.00387026
0.0102656
0.0586425
-0.00450541
0.0101532
0.0560031
-0.00503625
0.00999796
0.0528729
-0.00546378
0.0097976
0.0492767
-0.00580351
0.00955428
0.0452422
-0.00607422
0.00926711
0.0407971
-0.00625653
0.00891112
0.0359668
-0.00627265
0.00842064
0.0307458
-0.00547341
0.00757888
0.0249562
-0.00335647
0.00424639
0.017953
0.00431599
0.00974057
0.00685498
0.00382026
0.0199146
0.00954021
0.00607456
0.0273182
0.0103046
0.00884971
0.0351429
0.00994921
0.00965586
0.0414024
0.00925892
0.00999295
0.0467023
0.00850555
0.0101801
0.0514082
0.0077446
0.0103163
0.055669
0.00696916
0.0104347
0.0595126
0.00615916
0.0105377
0.0629287
0.00530099
0.0106194
0.0658978
0.00439111
0.0106777
0.0684005
0.00343377
0.0107155
0.0704208
0.00243755
0.0107382
0.0719467
0.00141344
0.0107517
0.0729691
0.000373413
0.0107605
0.073482
-0.000670482
0.0107673
0.0734825
-0.0017062
0.0107719
0.0729706
-0.0027221
0.0107721
0.0719493
-0.00370789
0.0107636
0.0704244
-0.00465602
0.0107413
0.068405
-0.00556375
0.0107008
0.0659033
-0.00643633
0.0106405
0.0629358
-0.00728853
0.0105633
0.0595226
-0.00814012
0.0104745
0.0556841
-0.00899694
0.010369
0.0514312
-0.0097962
0.0102063
0.0467337
-0.0102495
0.00987437
0.0414372
-0.00954796
0.00903269
0.0351718
-0.00687409
0.00615912
0.0273402
0.00378398
0.0199245
0.00700109
0.00427891
0.0279126
0.0101726
0.00687423
0.036859
0.0110937
0.00931773
0.0446486
0.0108584
0.010025
0.0508323
0.0101345
0.010298
0.0560063
0.00925046
0.0104014
0.0605388
0.0083259
0.0104434
0.0646054
0.00739273
0.0104688
0.0682598
0.00645141
0.0104896
0.0715039
0.00549378
0.010505
0.0743236
0.00451323
0.0105126
0.0767022
0.00350741
0.0105133
0.0786243
0.00247814
0.0105105
0.0800774
0.00143028
0.0105087
0.0810517
0.000370341
0.0105119
0.081541
-0.000694411
0.0105225
0.081542
-0.00175687
0.0105406
0.0810546
-0.00281097
0.0105644
0.0800822
-0.00385259
0.0105902
0.0786312
-0.00488074
0.0106146
0.0767114
-0.00589863
0.0106346
0.0743356
-0.00691335
0.0106499
0.0715198
-0.00793241
0.0106617
0.0682813
-0.00895289
0.0106684
0.0646344
-0.0099375
0.0106534
0.0605763
-0.0107569
0.0105637
0.0560495
-0.011067
0.0102786
0.0508719
-0.010182
0.00951358
0.044672
-0.00701513
0.00695061
0.0368718
0.00422349
0.0279177
0.00789626
0.00452824
0.036073
0.0108627
0.00734834
0.0460415
0.0115338
0.00939432
0.0537568
0.0112363
0.00995043
0.0596299
0.0105123
0.0101614
0.064576
0.00960679
0.0102203
0.0689388
0.00862912
0.0102137
0.0728523
0.00762604
0.0101834
0.0763608
0.00661426
0.0101464
0.07947
0.00559643
0.0101081
0.0821705
0.00456968
0.0100706
0.0844484
0.00353116
0.0100362
0.0862897
0.00247977
0.0100084
0.0876823
0.00141658
0.0099916
0.0886166
0.000344373
0.00998941
0.0890861
-0.000733392
0.0100042
0.0890875
-0.00181331
0.0100361
0.0886208
-0.00289294
0.0100835
0.0876893
-0.00397157
0.0101434
0.0862996
-0.00505046
0.0102118
0.0844613
-0.00613233
0.0102852
0.0821871
-0.00721895
0.0103603
0.0794912
-0.00830521
0.0104328
0.0763875
-0.00937011
0.0104933
0.072885
-0.0103602
0.0105192
0.0689766
-0.0111574
0.0104616
0.0646147
-0.0115058
0.0102238
0.059661
-0.0108548
0.00959759
0.0537694
-0.00789065
0.00742737
0.0460411
0.00447994
0.0360715
0.00852775
0.00465589
0.0440332
0.0113151
0.00748309
0.0548456
0.011784
0.00918598
0.0623541
0.01141
0.00961297
0.0679134
0.010681
0.00976415
0.0726307
0.00978153
0.00978885
0.0768283
0.00879676
0.00975156
0.0806055
0.00777073
0.00968548
0.0839912
0.0067262
0.0096074
0.0869881
0.00567315
0.00952677
0.0895885
0.00461399
0.00945036
0.0917806
0.00354806
0.00938367
0.0935522
0.00247427
0.00933206
0.094892
0.00139248
0.00930049
0.095791
0.000303389
0.00929305
0.0962429
-0.000791581
0.00931204
0.0962445
-0.00189106
0.00935779
0.0957959
-0.00299425
0.00942852
0.0949001
-0.00410118
0.00952059
0.0935635
-0.00521225
0.00962891
0.0917952
-0.00632685
0.0097473
0.0896066
-0.00744025
0.00986817
0.0870102
-0.00853888
0.00998145
0.0840172
-0.00959514
0.0100732
0.0806349
-0.0105591
0.0101214
0.0768591
-0.0113392
0.0100875
0.0726586
-0.0117453
0.0099001
0.0679318
-0.0112892
0.00939959
0.0623565
-0.00850752
0.00757763
0.0548358
0.00463341
0.0440277
0.00900764
0.00465019
0.0516682
0.0115891
0.00735185
0.0631268
0.0119079
0.00874785
0.0703793
0.0114816
0.00907057
0.0756613
0.0107527
0.00916988
0.0801732
0.00986886
0.00916626
0.0842153
0.00889573
0.00910708
0.0878648
0.00787042
0.00901719
0.0911386
0.00681548
0.00891095
0.0940356
0.00574361
0.00879954
0.0965476
0.00466103
0.00869284
0.0986641
0.00356998
0.00859962
0.100374
0.00247112
0.00852759
0.101667
0.00136475
0.0084832
0.102534
0.000251614
0.0084712
0.10297
-0.000867245
0.00849423
0.102972
-0.00199068
0.00855253
0.102539
-0.00311758
0.00864382
0.101675
-0.00424681
0.00876334
0.100385
-0.00537642
0.008904
0.0986785
-0.00650203
0.00905644
0.096565
-0.0076145
0.00920912
0.0940557
-0.00869742
0.00934836
0.091161
-0.009724
0.00945867
0.0878882
-0.0106529
0.00952161
0.0842375
-0.0114147
0.00950886
0.0801905
-0.0118603
0.009369
0.0756693
-0.0115507
0.00897476
0.0703752
-0.00898106
0.00747013
0.063115
0.00466411
0.0516584
0.00936691
0.00450141
0.0588392
0.0117609
0.00699046
0.0707736
0.011961
0.00811778
0.0777686
0.0114974
0.00835322
0.08281
0.0107715
0.00840896
0.0871405
0.00990547
0.00838174
0.0910397
0.00895091
0.00830689
0.0945696
0.0079376
0.00820185
0.0977397
0.00688487
0.00807825
0.100545
0.0058053
0.00794722
0.102978
0.00470669
0.0078203
0.105027
0.0035936
0.00770857
0.106682
0.00246883
0.00762183
0.107933
0.00133455
0.00756806
0.108772
0.000192899
0.00755289
0.109194
-0.000953772
0.00757933
0.109196
-0.00210291
0.00764746
0.108777
-0.0032517
0.00775429
0.107941
-0.00439681
0.00789372
0.106693
-0.00553363
0.00805656
0.10504
-0.00665524
0.00823085
0.102994
-0.00775099
0.0084024
0.100563
-0.0088052
0.00855598
0.0977576
-0.00979557
0.0086768
0.0945871
-0.0106898
0.00875043
0.0910546
-0.0114352
0.0087577
0.0871501
-0.0119099
0.00866142
0.0828114
-0.0117184
0.00836039
0.0777615
-0.00934151
0.00713727
0.0707621
0.00455205
0.0588279
0.00964398
0.00420654
0.065403
0.0118735
0.00642796
0.0776917
0.0119775
0.0073221
0.0844474
0.0114839
0.00748413
0.0892811
0.0107595
0.00750339
0.0934532
0.00990896
0.00745665
0.0972237
0.00897347
0.00737071
0.100644
0.00797615
0.00725717
0.103719
0.0069321
0.00712505
0.106442
0.00585191
0.00698462
0.108804
0.00474331
0.00684771
0.110793
0.0036122
0.00672646
0.112399
0.00246345
0.00663196
0.113613
0.00130155
0.00657324
0.114428
0.00013104
0.00655667
0.114837
-0.00104331
0.00658547
0.114839
-0.00221644
0.00665956
0.114432
-0.00338307
0.00677529
0.11362
-0.00453736
0.00692542
0.112409
-0.00567268
0.00709931
0.110804
-0.00678102
0.00728344
0.108817
-0.00785241
0.00746265
0.106456
-0.00887421
0.00762181
0.103733
-0.00982976
0.0077479
0.100657
-0.0106951
0.00783032
0.0972336
-0.0114291
0.00785692
0.093458
-0.0119289
0.00780043
0.0892792
-0.0118331
0.00758081
0.0844395
-0.00962167
0.00660321
0.0776813
0.00429058
0.065392
0.00985593
0.00377562
0.0712405
0.0119472
0.00568916
0.0837948
0.0119757
0.0063811
0.090338
0.011457
0.00648246
0.0949962
0.0107321
0.00647194
0.099032
0.0098929
0.00641
0.102689
0.00897375
0.00631663
0.106012
0.00799203
0.00619985
0.109002
0.00695856
0.00606645
0.111652
0.00588125
0.00592539
0.113951
0.00476686
0.00578781
0.115888
0.00362181
0.00566576
0.117452
0.00245258
0.00557054
0.118634
0.00126604
0.00551152
0.119427
6.9508e-05
0.00549527
0.119825
-0.00112933
0.00552509
0.119826
-0.00232255
0.00560071
0.11943
-0.00350211
0.00571808
0.11864
-0.00466004
0.00586945
0.11746
-0.00578843
0.00604367
0.115898
-0.00687944
0.00622702
0.113962
-0.00792498
0.00640473
0.111664
-0.00891625
0.00656299
0.109013
-0.00984213
0.00669093
0.106022
-0.0106855
0.00678101
0.102696
-0.0114128
0.00682545
0.0990345
-0.0119341
0.00680437
0.0949932
-0.0119127
0.00665447
0.0903303
-0.00983808
0.00589009
0.0837858
0.0038877
0.0712303
0.0100151
0.00322449
0.0762548
0.0119944
0.00479894
0.0890054
0.0119653
0.00531404
0.0953677
0.0114269
0.00536609
0.0998814
0.0107007
0.0053323
0.103803
0.00986954
0.00525975
0.107364
0.00896288
0.00516284
0.110603
0.00799392
0.00504735
0.11352
0.00696987
0.00491858
0.116107
0.00589613
0.00478407
0.118352
0.00477815
0.00465371
0.120244
0.00362236
0.00453845
0.121772
0.00243647
0.00444881
0.122927
0.00122944
0.00439364
0.123702
1.1196e-05
0.00437918
0.124091
-0.00120768
0.0044085
0.124092
-0.00241644
0.00448122
0.123705
-0.00360467
0.00459335
0.122932
-0.00476271
0.00473732
0.121779
-0.00588211
0.00490256
0.120252
-0.0069558
0.00507634
0.118361
-0.00797804
0.00524545
0.116116
-0.00894364
0.00539796
0.113529
-0.00984598
0.00552503
0.11061
-0.0106728
0.00562112
0.107369
-0.0113957
0.00568096
0.103805
-0.0119333
0.00569023
0.0998783
-0.0119671
0.00559897
0.0953609
-0.0100017
0.00502127
0.0889978
0.00335946
0.0762454
0.0101318
0.00257298
0.0803645
0.0120243
0.0037836
0.0932568
0.0119537
0.00414136
0.0994724
0.0114012
0.0041539
0.103871
0.0106736
0.00410335
0.107701
0.0098481
0.00402463
0.111183
0.00895038
0.0039281
0.114353
0.00799063
0.00381807
0.117211
0.00697345
0.00369885
0.119746
0.00590219
0.0035767
0.121948
0.00478116
0.00345985
0.123803
0.00361671
0.00335747
0.125302
0.00241739
0.00327851
0.126434
0.00119385
0.00323053
0.127194
-4.17193e-05
0.00321888
0.127576
-0.00127629
0.00324621
0.127577
-0.00249676
0.00331211
0.127197
-0.00369078
0.00341303
0.126439
-0.00484756
0.00354241
0.125308
-0.00595848
0.00369115
0.12381
-0.00701751
0.00384852
0.121956
-0.00802096
0.00400351
0.119755
-0.0089665
0.00414638
0.117219
-0.0098508
0.00427001
0.11436
-0.0106649
0.00436993
0.111188
-0.0113841
0.00444221
0.107703
-0.011932
0.00447627
0.103869
-0.0120043
0.00443389
0.0994664
-0.0101222
0.00402272
0.0932504
0.00272657
0.0803555
0.010214
0.00184323
0.083504
0.0120439
0.00267127
0.0964945
0.0119454
0.00288577
0.102599
0.0113842
0.00286677
0.106912
0.0106563
0.00280512
0.110673
0.00983481
0.00272448
0.114095
0.00894309
0.00263203
0.117213
0.0079892
0.00253122
0.120025
0.00697594
0.00242572
0.122521
0.00590531
0.00232053
0.124688
0.00478085
0.00222201
0.126516
0.0036088
0.00213714
0.127992
0.00239838
0.00207267
0.129108
0.00116156
0.00203431
0.129857
-8.77714e-05
0.00202614
0.130232
-0.00133465
0.00205013
0.130233
-0.00256419
0.002106
0.129859
-0.00376265
0.00219102
0.129112
-0.00491847
0.00230024
0.127998
-0.00602309
0.00242675
0.126522
-0.00707133
0.00256248
0.124696
-0.00806102
0.00269906
0.122528
-0.00899184
0.00282902
0.120032
-0.00986258
0.0029466
0.117219
-0.0106666
0.00304788
0.114099
-0.0113813
0.00312936
0.110674
-0.011934
0.00318312
0.106909
-0.0120306
0.00318181
0.102593
-0.0102074
0.00292286
0.0964888
0.00201216
0.0834953
0.0102676
0.0010587
0.0856245
0.0120579
0.00149146
0.0986768
0.0119435
0.00157212
0.104706
0.0113785
0.00152742
0.108962
0.0106514
0.00145909
0.112676
0.00983292
0.00138009
0.116059
0.00894485
0.00129495
0.119141
0.00799395
0.00120661
0.121922
0.00698194
0.0011182
0.124391
0.00591003
0.00103353
0.126536
0.00478133
0.000956917
0.128345
0.00360215
0.000892858
0.129806
0.00238222
0.000845551
0.130911
0.00113443
0.000818491
0.131652
-0.000126067
0.000814144
0.132024
-0.00138297
0.000833763
0.132024
-0.00262014
0.000877211
0.131654
-0.00382287
0.000942929
0.130915
-0.00497912
0.00102795
0.129811
-0.00608036
0.00112808
0.128351
-0.00712195
0.00123827
0.126543
-0.0081027
0.00135309
0.124399
-0.00902344
0.00146729
0.121929
-0.00988431
0.00157631
0.119147
-0.0106799
0.00167643
0.116063
-0.0113892
0.00176412
0.112678
-0.0119418
0.00183354
0.108959
-0.0120505
0.00186764
0.104701
-0.0102634
0.00175182
0.0986712
0.00124061
0.0856158
0.0102959
0.000244002
0.0866932
0.0120692
0.000274886
0.0997752
0.0119495
0.000226706
0.105767
0.0113847
0.000159807
0.109993
0.0106595
8.76991e-05
0.113685
0.00984327
1.29342e-05
0.117047
0.00895696
-6.23694e-05
0.120112
0.00800669
-0.000135723
0.122877
0.00699368
-0.000204458
0.125333
0.00591881
-0.000266057
0.127466
0.00478512
-0.000318302
0.129265
0.00359903
-0.000359354
0.130719
0.00237071
-0.000387791
0.131818
0.00111368
-0.000402539
0.132554
-0.000156121
-0.000402853
0.132924
-0.00142155
-0.000388303
0.132925
-0.00266569
-0.000358777
0.132557
-0.00387324
-0.000314554
0.131821
-0.0050318
-0.000256348
0.130723
-0.00613277
-0.000185395
0.129271
-0.00717173
-0.000103497
0.127472
-0.00814788
-1.30567e-05
0.125339
-0.00906262
8.29603e-05
0.122884
-0.0099167
0.000181148
0.120117
-0.0107055
0.000277857
0.117051
-0.0114086
0.00036939
0.113686
-0.0119571
0.000451752
0.109991
-0.0120673
0.000517943
0.105761
-0.0102937
0.000540649
0.0997695
0.000436867
0.0866844
0.0103004
-0.000575557
0.0866935
0.0120789
-0.00094707
0.0997753
0.0119637
-0.00112331
0.105767
0.0114026
-0.00121137
0.109993
0.0106801
-0.00128603
0.113684
0.0098653
-0.00135512
0.117047
0.00897905
-0.00141901
0.120111
0.00802734
-0.00147569
0.122876
0.00701139
-0.00152309
0.125332
0.00593217
-0.00156004
0.127465
0.00479286
-0.00158651
0.129264
0.00360016
-0.00160343
0.130717
0.00236453
-0.00161217
0.131816
0.00109981
-0.00161413
0.132553
-0.000177661
-0.00161032
0.132923
-0.0014504
-0.00160111
0.132923
-0.00270112
-0.00158616
0.132554
-0.00391422
-0.00156441
0.131819
-0.00507705
-0.00153431
0.130721
-0.0061808
-0.00149407
0.129269
-0.0072209
-0.0014422
0.127471
-0.00819651
-0.001378
0.125338
-0.00910902
-0.00130208
0.122882
-0.00995926
-0.00121662
0.120116
-0.0107427
-0.0011251
0.11705
-0.0114393
-0.00103129
0.113686
-0.0119803
-0.000937263
0.109991
-0.0120823
-0.00083996
0.105761
-0.0103001
-0.000679203
0.0997696
-0.000373597
0.0866847
0.0102809
-0.00137442
0.0856256
0.0120865
-0.00214265
0.0986772
0.0119855
-0.00245052
0.104706
0.0114313
-0.00256125
0.108961
0.0107121
-0.00263894
0.112675
0.00989776
-0.00270215
0.116057
0.00900974
-0.00275405
0.119139
0.00805448
-0.00279334
0.12192
0.00703369
-0.00281871
0.124388
0.00594883
-0.00283051
0.126533
0.00480351
-0.00283098
0.128341
0.00360473
-0.00282372
0.129802
0.00236314
-0.00281287
0.130906
0.00109264
-0.00280215
0.131646
-0.000190532
-0.00279423
0.132018
-0.00146901
-0.00279024
0.132019
-0.00272561
-0.00278961
0.131648
-0.00394474
-0.00279009
0.130909
-0.00511358
-0.00278798
0.129805
-0.00622301
-0.00277866
0.128345
-0.00726798
-0.00275743
0.126538
-0.00824712
-0.00272049
0.124394
-0.00916125
-0.00266601
0.121925
-0.0100107
-0.0025947
0.119144
-0.0107907
-0.0025096
0.11606
-0.0114806
-0.00241421
0.112676
-0.0120111
-0.00230835
0.108959
-0.0120954
-0.0021785
0.104701
-0.0102829
-0.00187582
0.0986714
-0.00116568
0.0856168
0.0102354
-0.00212708
0.0835056
0.0120901
-0.00328035
0.0964951
0.0120131
-0.00372792
0.102599
0.0114694
-0.00386531
0.106911
0.0107538
-0.0039482
0.110671
0.00993872
-0.00400652
0.114093
0.00904673
-0.00404678
0.11721
0.00808547
-0.00406892
0.120021
0.00705772
-0.00407267
0.122516
0.0059659
-0.00406007
0.124683
0.00481434
-0.00403562
0.12651
0.00361047
-0.0040055
0.127985
0.00236496
-0.00397628
0.129101
0.00109138
-0.00395374
0.129849
-0.000194617
-0.00394192
0.130224
-0.00147635
-0.00394264
0.130225
-0.00273729
-0.00395514
0.12985
-0.00396221
-0.00397622
0.129103
-0.00513833
-0.00400041
0.127988
-0.00625613
-0.00402065
0.126513
-0.00730978
-0.00402931
0.124687
-0.00829683
-0.00401963
0.12252
-0.00921693
-0.00398719
0.120025
-0.0100692
-0.00393099
0.117214
-0.0108478
-0.00385306
0.114095
-0.0115312
-0.00375603
0.110672
-0.0120478
-0.00363676
0.106908
-0.0121045
-0.00347064
0.102594
-0.0102397
-0.00301784
0.0964892
-0.00191398
0.0834969
0.01016
-0.00280868
0.0803664
0.0120857
-0.00432935
0.0932573
0.0120438
-0.00492963
0.0994727
0.0115143
-0.0051
0.103871
0.0108028
-0.0051918
0.1077
0.00998519
-0.00524715
0.111181
0.00908641
-0.00527699
0.11435
0.00811611
-0.00528314
0.117206
0.00707892
-0.00526686
0.119741
0.00597879
-0.00523205
0.121941
0.00482115
-0.00518542
0.123795
0.00361388
-0.00513537
0.125293
0.00236748
-0.00509041
0.126425
0.00109475
-0.00505782
0.127184
-0.000189843
-0.00504267
0.127565
-0.00147098
-0.00504722
0.127566
-0.00273336
-0.00507072
0.127186
-0.0039627
-0.00510928
0.126427
-0.00514651
-0.00515626
0.125296
-0.00627495
-0.00520276
0.123799
-0.00734112
-0.00523884
0.121945
-0.00834092
-0.00525508
0.119745
-0.00927204
-0.00524446
0.11721
-0.0101316
-0.0052038
0.114353
-0.0109116
-0.00513348
0.111183
-0.0115885
-0.00503429
0.1077
-0.0120876
-0.00489891
0.103868
-0.0121058
-0.0046906
0.0994672
-0.0101664
-0.0040744
0.0932512
-0.00259351
0.0803579
0.0100486
-0.00339535
0.0762569
0.0120681
-0.0052599
0.0890055
0.0120736
-0.00603161
0.095368
0.0115626
-0.00624348
0.0998812
0.010855
-0.006349
0.103802
0.0100323
-0.0064039
0.107362
0.00912317
-0.00642517
0.110599
0.00814025
-0.00641739
0.113516
0.00709098
-0.00638399
0.116101
0.00598147
-0.0063309
0.118345
0.0048186
-0.0062668
0.120236
0.00361067
-0.00620165
0.121763
0.0023677
-0.00614517
0.122917
0.00110116
-0.00610539
0.123691
-0.000176285
-0.00608791
0.124079
-0.00145134
-0.00609523
0.124079
-0.00271065
-0.00612662
0.123692
-0.00394143
-0.00617802
0.122919
-0.00513203
-0.00624228
0.121766
-0.00627243
-0.00630956
0.120239
-0.00735456
-0.00636844
0.118349
-0.0083722
-0.0064075
0.116105
-0.0093202
-0.00641732
0.113519
-0.0101925
-0.00639212
0.110603
-0.0109778
-0.00632973
0.107364
-0.0116491
-0.00622778
0.103802
-0.0121268
-0.00607292
0.0998783
-0.0120936
-0.00581462
0.0953624
-0.0100568
-0.00501588
0.0889992
-0.00317994
0.0762484
0.00989298
-0.00386526
0.0712425
0.0120298
-0.00604409
0.0837946
0.0120975
-0.00701223
0.0903384
0.0116092
-0.00727593
0.0949967
0.0109041
-0.00740026
0.099032
0.0100729
-0.00745775
0.102688
0.00914909
-0.00747269
0.10601
0.00814982
-0.00745398
0.108999
0.00708622
-0.00740793
0.111648
0.00596727
-0.00734255
0.113945
0.00480127
-0.00726781
0.115881
0.00359679
-0.0071944
0.117443
0.00236282
-0.00713216
0.118624
0.00110906
-0.00708916
0.119416
-0.000154255
-0.00707083
0.119813
-0.00141641
-0.00707973
0.119814
-0.00266659
-0.00711522
0.119417
-0.00389409
-0.0071735
0.118626
-0.00508865
-0.0072476
0.117446
-0.00624059
-0.00732785
0.115884
-0.00734089
-0.00740246
0.113949
-0.00838094
-0.00745903
0.111652
-0.00935202
-0.00748627
0.109003
-0.0102436
-0.0074757
0.106014
-0.0110396
-0.00742147
0.102691
-0.0117079
-0.00731629
0.0990326
-0.0121602
-0.00713888
0.0949941
-0.0120609
-0.00682139
0.0903328
-0.00990257
-0.00581474
0.0837878
-0.00365107
0.0712341
0.00968258
-0.0042006
0.0654049
0.0119617
-0.00665578
0.0776913
0.0121083
-0.00785131
0.0844482
0.0116466
-0.00817855
0.0892828
0.0109417
-0.00832717
0.093455
0.0100974
-0.00839026
0.097225
0.00915425
-0.00840146
0.100644
0.00813558
-0.0083761
0.103718
0.00705707
-0.00832387
0.10644
0.00593049
-0.00825437
0.1088
0.00476538
-0.00817797
0.110787
0.00356985
-0.00810478
0.112392
0.00235141
-0.00804378
0.113605
0.00111741
-0.00800216
0.114418
-0.000124551
-0.00798484
0.114826
-0.00136662
-0.00799416
0.114827
-0.00260073
-0.00802966
0.11442
-0.0038187
-0.00808808
0.113607
-0.00501222
-0.00816333
0.112395
-0.0061727
-0.00824671
0.110791
-0.00729076
-0.0083275
0.108804
-0.00835587
-0.0083936
0.106445
-0.00935546
-0.00843299
0.103723
-0.0102736
-0.00843481
0.10065
-0.0110874
-0.00838888
0.0972293
-0.0117571
-0.00828035
0.093457
-0.0121813
-0.00807758
0.0892813
-0.0119991
-0.00769097
0.0844431
-0.0096938
-0.00644553
0.0776842
-0.00398931
0.0653966
0.00940512
-0.00438944
0.0588411
0.0118521
-0.00706956
0.070773
0.0120968
-0.00852753
0.0777702
0.0116648
-0.00893107
0.0828136
0.0109563
-0.00911002
0.0871449
0.0100934
-0.00918194
0.0910438
0.00912755
-0.00919333
0.0945726
0.00808908
-0.00916762
0.097741
0.00699825
-0.00911799
0.100545
0.00586899
-0.00905469
0.102976
0.00471096
-0.0089871
0.105023
0.00353097
-0.00892343
0.106677
0.00233441
-0.00887093
0.107926
0.00112619
-0.00883538
0.108764
-8.85971e-05
-0.00882098
0.109185
-0.00130463
-0.00882973
0.109186
-0.0025163
-0.00886144
0.108766
-0.0037179
-0.00891342
0.10793
-0.00490346
-0.00898074
0.106681
-0.0060662
-0.00905647
0.105029
-0.00719768
-0.0091319
0.102982
-0.0082865
-0.00919691
0.100552
-0.00931713
-0.00924023
0.0977489
-0.0102679
-0.0092498
0.0945806
-0.011108
-0.00921081
0.0910511
-0.0117857
-0.00909896
0.0871499
-0.0121807
-0.00886798
0.0828145
-0.0118971
-0.00840193
0.077766
-0.00941888
-0.00688328
0.0707657
-0.00418415
0.0588333
0.009045
-0.00443374
0.0516695
0.0116816
-0.00725467
0.0631256
0.012045
-0.009013
0.0703821
0.0116479
-0.00950899
0.0756677
0.0109327
-0.00972569
0.0801809
0.0100476
-0.00981075
0.0842227
0.00905916
-0.00982843
0.0878708
0.0080052
-0.00981131
0.0911426
0.00690944
-0.00977554
0.0940375
0.00578619
-0.00973044
0.0965475
0.00464343
-0.00968256
0.0986622
0.00348564
-0.00963732
0.100371
0.00231571
-0.00959964
0.101662
0.00113656
-0.0095741
0.102528
-4.85192e-05
-0.00956414
0.102963
-0.00123564
-0.00957168
0.102964
-0.00242086
-0.00959657
0.102531
-0.00360022
-0.0096367
0.101666
-0.00476988
-0.00968819
0.100376
-0.00592557
-0.0097458
0.098669
-0.00706111
-0.00980352
0.0965557
-0.00816644
-0.00985449
0.0940471
-0.00922495
-0.00989032
0.0911536
-0.0102108
-0.0098995
0.0878827
-0.0110839
-0.00986351
0.0842346
-0.0117764
-0.00974722
0.0801908
-0.0121402
-0.00948428
0.0756727
-0.011736
-0.0089261
0.0703799
-0.00906124
-0.00709891
0.063118
-0.00423851
0.0516633
0.00856504
-0.00434604
0.0440359
0.0114073
-0.00717374
0.0548445
0.0119186
-0.00926825
0.0623586
0.0115695
-0.00988096
0.0679231
0.0108489
-0.0101427
0.0726419
0.00994332
-0.0102467
0.0768389
0.00893905
-0.0102797
0.0806141
0.00788143
-0.0102839
0.0839974
0.00679469
-0.0102762
0.086992
0.00569029
-0.0102621
0.0895902
0.00457248
-0.0102441
0.0917806
0.0034424
-0.0102242
0.0935507
0.00230104
-0.0102058
0.0948894
0.00115029
-0.0101928
0.0957875
-6.82038e-06
-0.0101882
0.0962386
-0.00116652
-0.0101941
0.0962396
-0.00232486
-0.0102104
0.0957903
-0.00347843
-0.0102353
0.094894
-0.00462465
-0.0102652
0.093557
-0.00576148
-0.0102963
0.0917885
-0.00688624
-0.0103246
0.0895999
-0.00799279
-0.0103471
0.0870037
-0.00906728
-0.0103601
0.0840115
-0.0100826
-0.010356
0.0806304
-0.0109903
-0.010315
0.0768566
-0.0117006
-0.0101914
0.0726587
-0.0120244
-0.00989327
0.0679348
-0.0114734
-0.0092228
0.0623603
-0.0085874
-0.00705516
0.054838
-0.0041705
0.0440332
0.00793443
-0.00413915
0.0360773
0.0109517
-0.00675376
0.0460448
0.0116617
-0.00923766
0.0537638
0.0113832
-0.00998735
0.0596427
0.0106615
-0.0102957
0.0645901
0.00974453
-0.0104289
0.0689514
0.00874369
-0.0104963
0.0728623
0.00770723
-0.0105431
0.076368
0.00665341
-0.010582
0.0794747
0.00558633
-0.0106124
0.0821732
0.00450466
-0.0106323
0.0844496
0.00340696
-0.0106423
0.0862898
0.00229383
-0.0106454
0.0876816
0.00116792
-0.0106458
0.0886153
3.38543e-05
-0.010647
0.0890842
-0.00110293
-0.0106512
0.0890852
-0.00223687
-0.0106583
0.0886181
-0.00336322
-0.0106663
0.0876863
-0.00447886
-0.0106718
0.0862962
-0.00558264
-0.0106706
0.0844577
-0.0066751
-0.0106596
0.0821833
-0.00775611
-0.0106383
0.0794873
-0.00881962
-0.0106079
0.0763837
-0.00984475
-0.0105676
0.0728817
-0.0107795
-0.0105024
0.0689743
-0.0115072
-0.0103625
0.0646142
-0.0117739
-0.0100316
0.0596628
-0.0110296
-0.00923467
0.0537721
-0.0079671
-0.0066806
0.046045
-0.00399663
0.0360777
0.0070428
-0.00372859
0.0279189
0.0102566
-0.00600482
0.0368674
0.01121
-0.00881095
0.0446577
0.0109857
-0.0096432
0.0508463
0.0102572
-0.0100006
0.0560209
0.00935709
-0.0102037
0.060551
0.00840704
-0.0103526
0.0646143
0.00744086
-0.0104821
0.0682659
0.00645997
-0.0105945
0.0715079
0.00545769
-0.0106848
0.0743262
0.00442827
-0.0107503
0.0767039
0.00337051
-0.0107936
0.0786254
0.00228735
-0.0108198
0.080078
0.00118492
-0.0108345
0.081052
7.11666e-05
-0.0108419
0.0815411
-0.00104511
-0.0108444
0.081542
-0.00215504
-0.0108421
0.0810546
-0.00325066
-0.0108325
0.0800821
-0.00432575
-0.0108114
0.078631
-0.00537724
-0.0107734
0.0767109
-0.00640598
-0.0107141
0.0743348
-0.00741702
-0.0106313
0.0715186
-0.00841615
-0.0105277
0.0682796
-0.00940001
-0.0104083
0.0646324
-0.0103317
-0.0102691
0.0605745
-0.0110838
-0.0100714
0.0560486
-0.0113144
-0.00970713
0.0508723
-0.0103397
-0.00884466
0.0446731
-0.00708696
-0.00598007
0.0368769
-0.00363529
0.027924
0.00688863
-0.00427177
0.0199211
0.00961069
-0.00412878
0.0273287
0.0103967
-0.00742335
0.0351536
0.0100431
-0.00826598
0.041414
0.00934288
-0.00878328
0.0467125
0.0085717
-0.00917158
0.0514153
0.00778718
-0.00948881
0.0556734
0.00698259
-0.00975696
0.0595155
0.00613939
-0.00997655
0.0629309
0.00524441
-0.0101464
0.0658997
0.00429473
-0.0102704
0.0684024
0.00329507
-0.0103562
0.0704227
0.00225487
-0.0104123
0.0719485
0.00118626
-0.010446
0.0729709
0.000102233
-0.0104622
0.0734839
-0.00098378
-0.0104633
0.0734846
-0.00205848
-0.0104494
0.0729729
-0.00310878
-0.0104179
0.0719516
-0.00412266
-0.0103638
0.0704267
-0.0050908
-0.0102798
0.068407
-0.00600866
-0.0101581
0.065905
-0.00687929
-0.00999188
0.0629369
-0.00771554
-0.00977823
0.0595228
-0.00853572
-0.00951884
0.0556835
-0.00934595
-0.00921275
0.0514301
-0.0100838
-0.0088368
0.0467328
-0.0104631
-0.00832728
0.0414371
-0.0096774
-0.00747642
0.0351732
-0.00693083
-0.00414426
0.0273444
-0.0042285
0.019929
0.00335729
-0.000342534
0.00973518
0.0055363
-0.00135551
0.0179374
0.00642972
-0.00476984
0.0249411
0.00651531
-0.00529847
0.0307326
0.00642197
-0.00589517
0.0359582
0.00622168
-0.00640245
0.0407933
0.00593222
-0.00685399
0.045242
0.00553822
-0.00723573
0.0492778
0.00502686
-0.00754572
0.0528743
0.00439919
-0.00778871
0.0560045
0.00366845
-0.00797299
0.0586441
0.00285375
-0.00810778
0.0607749
0.00197599
-0.00820123
0.0623838
0.00105681
-0.00826071
0.0634613
0.000116667
-0.00828973
0.0640016
-0.000824784
-0.00828999
0.064002
-0.00174777
-0.00826145
0.0634624
-0.0026317
-0.00820227
0.0623854
-0.00345491
-0.00810869
0.0607768
-0.00419665
-0.00797333
0.058646
-0.0048382
-0.00778826
0.0560062
-0.00536674
-0.00754508
0.0528755
-0.00578209
-0.00723603
0.0492782
-0.00609833
-0.00685782
0.0452426
-0.00633364
-0.00641301
0.0407977
-0.00646839
-0.00591718
0.0359681
-0.00642626
-0.00533167
0.0307479
-0.00556311
-0.00481069
0.0249592
-0.00339373
-0.00138052
0.0179565
-0.00034362
0.0097431
-0.000138252
0.00755511
0.00257547
0.00976883
0.00243745
0.0150055
0.00265603
0.0196079
0.00285236
0.0241787
0.0029929
0.0285014
0.00305132
0.0325083
0.00300481
0.0361856
0.00283524
0.0395084
0.00255081
0.0424259
0.00217012
0.0449025
0.00171386
0.0469124
0.00120257
0.0484361
0.000654967
0.0494592
8.93023e-05
0.0499729
-0.000476686
0.0499729
-0.00102517
0.0494594
-0.00153764
0.0484362
-0.00199491
0.0469125
-0.00237597
0.0449025
-0.00265993
0.0424259
-0.0028289
0.0395084
-0.00287609
0.036186
-0.00282335
0.0325101
-0.00269682
0.0285048
-0.00252766
0.0241839
-0.00234902
0.0196146
-0.00253505
0.0150127
0.000146587
0.0097759
0.00756236
0.000903104
0.000270177
0.00637736
0.00159801
0.000525464
0.00854429
0.00175526
0.0014663
0.0133776
0.0019142
0.00191988
0.0175248
0.00195746
0.00253524
0.0215964
0.00191869
0.00311373
0.0254233
0.00181248
0.0036432
0.028969
0.00165717
0.00411204
0.0322276
0.00146314
0.00452166
0.0351796
0.0012351
0.0048757
0.0377765
0.000975287
0.0051764
0.0399832
0.000686046
0.00542245
0.0417757
0.000371216
0.00561105
0.0431357
3.75405e-05
0.00573901
0.0440494
-0.000305772
0.00580383
0.0445077
-0.000647842
0.00580364
0.0445065
-0.000978399
0.005739
0.0440458
-0.00128906
0.00561183
0.0431298
-0.00157448
0.00542507
0.0417678
-0.00183284
0.00518246
0.0399738
-0.00206381
0.00488677
0.0377664
-0.00226558
0.00453767
0.0351693
-0.00242936
0.00412847
0.0322178
-0.00253362
0.00364962
0.0289607
-0.00254467
0.00309471
0.0254171
-0.00243157
0.00247399
0.0215931
-0.00215171
0.00180656
0.0175252
-0.00182645
0.00130342
0.0133816
-0.000964636
0.000362835
0.00854943
0.000213344
0.00638259
0.000709477
0.000879908