/*--------------------------------*- C++ -*----------------------------------*\
| =========                 |                                                 |
| \\      /  F ield         | OpenFOAM: The Open Source CFD Toolbox           |
|  \\    /   O peration     | Version:  2312                                  |
|   \\  /    A nd           | Website:  www.openfoam.com                      |
|    \\/     M anipulation  |                                                 |
\*---------------------------------------------------------------------------*/
FoamFile
{
    version     2.0;
    format      ascii;
    arch        "LSB;label=32;scalar=64";
    class       volScalarField;
    location    "800";
    object      T;
}
// * * * * * * * * * * * * * * * * * * * * * * * * * * * * * * * * * * * * * //

dimensions      [0 0 0 1 0 0 0];

internalField   nonuniform List<scalar> 
27000
(
427.481
356.262
347.615
343.484
342.844
342.988
343.249
343.522
343.787
344.013
344.195
344.334
344.433
344.498
344.53
344.529
344.495
344.429
344.326
344.185
343.999
343.766
343.493
343.207
342.925
342.748
343.334
347.382
355.933
426.861
336.376
355.082
348.931
347.323
347.104
347.388
347.717
347.99
348.206
348.375
348.502
348.594
348.658
348.697
348.716
348.714
348.691
348.647
348.578
348.478
348.341
348.158
347.922
347.62
347.252
346.92
347.088
348.662
354.846
336.428
342.95
346.302
348.899
348.69
348.584
348.681
348.853
349.02
349.159
349.267
349.35
349.41
349.45
349.475
349.485
349.482
349.465
349.432
349.382
349.31
349.212
349.084
348.921
348.724
348.52
348.398
348.497
348.743
346.253
342.983
342.872
346.879
348.587
348.941
348.988
349.047
349.15
349.269
349.381
349.476
349.551
349.607
349.646
349.67
349.679
349.675
349.656
349.622
349.571
349.501
349.409
349.295
349.162
349.022
348.904
348.844
348.817
348.512
346.874
342.907
343.296
347.46
348.808
349.099
349.181
349.232
349.302
349.388
349.478
349.562
349.632
349.687
349.727
349.751
349.76
349.755
349.735
349.7
349.647
349.578
349.492
349.393
349.288
349.192
349.121
349.082
349.027
348.777
347.477
343.332
343.728
347.873
349.005
349.247
349.322
349.365
349.415
349.479
349.551
349.622
349.685
349.737
349.776
349.8
349.81
349.804
349.784
349.748
349.697
349.632
349.556
349.474
349.395
349.33
349.286
349.26
349.211
349.002
347.904
343.767
344.132
348.165
349.142
349.36
349.431
349.471
349.511
349.56
349.617
349.676
349.732
349.779
349.815
349.838
349.847
349.842
349.822
349.788
349.742
349.684
349.619
349.553
349.494
349.449
349.42
349.399
349.351
349.16
348.206
344.173
344.474
348.374
349.237
349.439
349.512
349.553
349.589
349.631
349.678
349.727
349.775
349.817
349.85
349.871
349.88
349.875
349.857
349.826
349.785
349.735
349.681
349.629
349.584
349.55
349.526
349.503
349.45
349.268
348.422
344.515
344.761
348.524
349.3
349.493
349.57
349.614
349.652
349.69
349.731
349.774
349.816
349.853
349.882
349.901
349.909
349.905
349.889
349.862
349.826
349.784
349.74
349.697
349.66
349.631
349.606
349.577
349.517
349.339
348.573
344.798
344.996
348.63
349.34
349.527
349.608
349.658
349.698
349.736
349.775
349.814
349.851
349.884
349.91
349.928
349.935
349.932
349.918
349.895
349.864
349.829
349.791
349.754
349.721
349.692
349.664
349.627
349.559
349.384
348.68
345.031
345.182
348.704
349.362
349.545
349.63
349.686
349.73
349.77
349.809
349.846
349.88
349.91
349.934
349.949
349.956
349.954
349.942
349.923
349.896
349.865
349.832
349.799
349.767
349.735
349.702
349.657
349.583
349.409
348.752
345.214
345.321
348.753
349.374
349.553
349.642
349.702
349.75
349.793
349.833
349.869
349.902
349.93
349.952
349.966
349.973
349.971
349.961
349.944
349.921
349.894
349.863
349.831
349.798
349.764
349.724
349.674
349.594
349.421
348.8
345.351
345.42
348.783
349.377
349.554
349.645
349.709
349.761
349.807
349.848
349.885
349.917
349.943
349.964
349.978
349.984
349.983
349.974
349.959
349.938
349.913
349.884
349.852
349.817
349.779
349.736
349.68
349.596
349.424
348.829
345.448
345.482
348.8
349.376
349.551
349.644
349.711
349.765
349.813
349.855
349.892
349.924
349.95
349.97
349.984
349.99
349.989
349.981
349.967
349.948
349.923
349.894
349.862
349.826
349.786
349.739
349.679
349.592
349.422
348.844
345.51
345.511
348.806
349.373
349.546
349.64
349.708
349.764
349.813
349.855
349.893
349.925
349.951
349.971
349.984
349.99
349.989
349.982
349.969
349.949
349.925
349.896
349.863
349.827
349.785
349.736
349.675
349.587
349.417
348.848
345.538
345.509
348.802
349.368
349.541
349.635
349.702
349.758
349.807
349.85
349.887
349.919
349.946
349.966
349.979
349.985
349.984
349.977
349.963
349.944
349.919
349.89
349.857
349.819
349.777
349.728
349.667
349.579
349.41
348.843
345.535
345.476
348.789
349.362
349.535
349.628
349.694
349.748
349.796
349.838
349.875
349.908
349.934
349.955
349.968
349.975
349.974
349.966
349.951
349.931
349.905
349.875
349.842
349.805
349.763
349.716
349.656
349.57
349.401
348.827
345.5
345.409
348.765
349.354
349.528
349.618
349.681
349.733
349.779
349.82
349.857
349.89
349.918
349.939
349.953
349.96
349.958
349.949
349.933
349.911
349.884
349.853
349.819
349.782
349.743
349.698
349.642
349.559
349.39
348.801
345.433
345.307
348.727
349.342
349.518
349.604
349.663
349.711
349.754
349.794
349.832
349.866
349.895
349.918
349.933
349.94
349.938
349.928
349.909
349.885
349.855
349.821
349.786
349.75
349.713
349.672
349.621
349.542
349.373
348.76
345.329
345.164
348.671
349.322
349.5
349.583
349.637
349.681
349.721
349.761
349.799
349.836
349.867
349.892
349.909
349.916
349.914
349.901
349.88
349.852
349.818
349.781
349.744
349.708
349.673
349.636
349.591
349.517
349.347
348.701
345.185
344.975
348.591
349.291
349.473
349.551
349.599
349.639
349.678
349.718
349.76
349.799
349.834
349.862
349.881
349.889
349.885
349.871
349.847
349.814
349.775
349.733
349.692
349.653
349.619
349.586
349.547
349.48
349.309
348.617
344.995
344.736
348.479
349.243
349.43
349.503
349.546
349.583
349.623
349.667
349.713
349.758
349.797
349.829
349.85
349.859
349.855
349.838
349.81
349.772
349.727
349.678
349.629
349.586
349.55
349.519
349.486
349.425
349.251
348.499
344.755
344.446
348.324
349.172
349.367
349.436
349.476
349.513
349.557
349.608
349.662
349.713
349.758
349.794
349.817
349.827
349.822
349.804
349.772
349.729
349.676
349.618
349.559
349.507
349.464
349.432
349.402
349.346
349.167
348.336
344.463
344.101
348.11
349.069
349.277
349.345
349.386
349.428
349.482
349.544
349.608
349.667
349.718
349.757
349.782
349.793
349.788
349.768
349.734
349.686
349.625
349.557
349.485
349.418
349.363
349.324
349.292
349.237
349.048
348.111
344.114
343.694
347.812
348.921
349.154
349.228
349.274
349.33
349.399
349.477
349.553
349.621
349.677
349.718
349.744
349.755
349.751
349.73
349.695
349.643
349.577
349.498
349.411
349.325
349.249
349.193
349.152
349.091
348.88
347.8
343.702
343.258
347.39
348.712
348.996
349.081
349.139
349.216
349.31
349.407
349.496
349.571
349.629
349.671
349.697
349.708
349.703
349.684
349.648
349.596
349.527
349.44
349.338
349.228
349.123
349.038
348.981
348.906
348.645
347.36
343.258
342.826
346.795
348.477
348.83
348.886
348.956
349.07
349.198
349.316
349.416
349.495
349.554
349.595
349.619
349.63
349.626
349.608
349.575
349.524
349.455
349.364
349.25
349.115
348.971
348.842
348.762
348.708
348.376
346.742
342.818
342.891
346.195
348.774
348.58
348.492
348.603
348.787
348.961
349.105
349.217
349.302
349.363
349.405
349.43
349.441
349.438
349.421
349.389
349.34
349.27
349.175
349.049
348.889
348.694
348.488
348.354
348.424
348.621
346.101
342.871
336.296
354.92
348.815
347.241
347.043
347.339
347.676
347.953
348.171
348.34
348.468
348.56
348.623
348.663
348.681
348.68
348.658
348.614
348.547
348.449
348.315
348.137
347.906
347.612
347.252
346.924
347.083
348.616
354.699
336.264
427.134
356.148
347.552
343.449
342.82
342.969
343.232
343.506
343.77
343.997
344.178
344.316
344.416
344.481
344.514
344.513
344.479
344.412
344.311
344.171
343.987
343.757
343.488
343.207
342.932
342.766
343.363
347.408
355.924
426.615
446.251
363.039
347.366
338.792
336.061
335.356
335.264
335.377
335.567
335.768
335.954
336.115
336.24
336.325
336.368
336.369
336.329
336.247
336.125
335.969
335.789
335.598
335.423
335.338
335.475
336.253
339.089
347.783
363.559
447.132
331.312
360.503
351.832
346.576
343.619
342.59
342.443
342.588
342.802
343.012
343.194
343.341
343.452
343.526
343.565
343.568
343.536
343.469
343.366
343.229
343.06
342.87
342.685
342.586
342.806
343.921
346.948
352.209
360.802
331.198
336.158
342.813
348.675
348.194
346.885
346.051
345.697
345.59
345.581
345.606
345.64
345.673
345.703
345.725
345.739
345.744
345.741
345.73
345.714
345.697
345.685
345.688
345.734
345.889
346.297
347.17
348.47
348.869
342.862
336.119
335.223
340.966
345.46
347.069
347.128
346.836
346.589
346.437
346.351
346.301
346.272
346.257
346.252
346.252
346.255
346.262
346.271
346.286
346.308
346.342
346.393
346.47
346.588
346.77
347.039
347.326
347.222
345.527
340.956
335.179
335.607
341.353
344.976
346.414
346.829
346.845
346.748
346.644
346.56
346.496
346.451
346.42
346.401
346.393
346.392
346.4
346.414
346.438
346.474
346.523
346.588
346.673
346.776
346.892
346.987
346.949
346.488
344.986
341.313
335.557
335.969
342.104
345.198
346.273
346.641
346.737
346.721
346.667
346.606
346.551
346.506
346.472
346.45
346.438
346.436
346.443
346.46
346.487
346.524
346.574
346.634
346.703
346.772
346.827
346.83
346.707
346.3
345.179
342.047
335.915
336.365
342.727
345.452
346.284
346.562
346.654
346.666
346.641
346.6
346.557
346.519
346.488
346.466
346.454
346.452
346.458
346.475
346.501
346.536
346.579
346.628
346.678
346.72
346.738
346.711
346.594
346.284
345.417
342.665
336.307
336.794
343.219
345.648
346.322
346.532
346.604
346.619
346.606
346.579
346.547
346.516
346.49
346.471
346.46
346.458
346.464
346.479
346.502
346.532
346.567
346.604
346.639
346.663
346.666
346.634
346.54
346.304
345.604
343.156
336.736
337.194
343.612
345.802
346.36
346.523
346.575
346.587
346.577
346.558
346.533
346.509
346.488
346.473
346.464
346.462
346.467
346.48
346.499
346.523
346.55
346.577
346.601
346.615
346.614
346.587
346.516
346.332
345.753
343.551
337.141
337.538
343.926
345.926
346.4
346.526
346.562
346.566
346.557
346.541
346.522
346.503
346.486
346.474
346.467
346.466
346.47
346.48
346.495
346.514
346.534
346.554
346.57
346.58
346.579
346.561
346.509
346.365
345.875
343.868
337.492
337.828
344.172
346.027
346.438
346.537
346.559
346.556
346.545
346.53
346.513
346.498
346.486
346.477
346.472
346.471
346.474
346.482
346.493
346.507
346.522
346.536
346.549
346.557
346.559
346.549
346.514
346.401
345.977
344.118
337.785
338.061
344.362
346.108
346.474
346.552
346.563
346.554
346.539
346.524
346.509
346.497
346.487
346.48
346.477
346.476
346.479
346.485
346.493
346.503
346.514
346.525
346.535
346.544
346.55
346.548
346.526
346.435
346.059
344.311
338.022
338.237
344.501
346.169
346.504
346.568
346.57
346.556
346.539
346.523
346.509
346.498
346.49
346.485
346.482
346.482
346.484
346.489
346.495
346.502
346.51
346.519
346.529
346.538
346.547
346.552
346.54
346.466
346.122
344.453
338.2
338.355
344.593
346.212
346.527
346.581
346.578
346.56
346.541
346.524
346.511
346.501
346.494
346.489
346.487
346.488
346.489
346.493
346.497
346.503
346.509
346.517
346.527
346.538
346.549
346.558
346.553
346.489
346.166
344.547
338.319
338.415
344.64
346.235
346.541
346.591
346.584
346.565
346.545
346.527
346.514
346.504
346.498
346.494
346.492
346.492
346.494
346.497
346.5
346.505
346.511
346.519
346.529
346.54
346.554
346.565
346.563
346.504
346.191
344.596
338.381
338.417
344.644
346.24
346.546
346.596
346.589
346.569
346.549
346.532
346.518
346.508
346.501
346.497
346.496
346.496
346.497
346.5
346.504
346.509
346.515
346.523
346.533
346.546
346.559
346.571
346.569
346.511
346.198
344.601
338.384
338.362
344.605
346.226
346.541
346.596
346.592
346.574
346.554
346.537
346.523
346.513
346.505
346.5
346.498
346.498
346.5
346.503
346.508
346.514
346.521
346.53
346.541
346.554
346.567
346.577
346.572
346.509
346.186
344.564
338.33
338.249
344.52
346.192
346.528
346.591
346.593
346.579
346.561
346.544
346.53
346.518
346.509
346.503
346.5
346.499
346.501
346.505
346.512
346.52
346.53
346.54
346.552
346.565
346.576
346.583
346.572
346.499
346.155
344.481
338.218
338.078
344.388
346.139
346.506
346.585
346.595
346.586
346.571
346.554
346.539
346.525
346.514
346.506
346.501
346.5
346.502
346.508
346.517
346.528
346.54
346.554
346.568
346.58
346.59
346.591
346.572
346.483
346.106
344.352
338.047
337.849
344.205
346.066
346.48
346.579
346.601
346.598
346.585
346.569
346.551
346.534
346.519
346.509
346.502
346.5
346.503
346.511
346.522
346.537
346.554
346.572
346.589
346.603
346.61
346.605
346.574
346.463
346.039
344.171
337.819
337.563
343.964
345.973
346.45
346.578
346.614
346.618
346.607
346.588
346.566
346.545
346.526
346.512
346.503
346.501
346.504
346.514
346.529
346.549
346.572
346.595
346.617
346.634
346.64
346.629
346.582
346.443
345.953
343.934
337.534
337.222
343.656
345.857
346.421
346.585
346.638
346.647
346.636
346.613
346.585
346.558
346.534
346.516
346.505
346.501
346.506
346.517
346.536
346.561
346.591
346.622
346.652
346.674
346.682
346.665
346.602
346.425
345.846
343.631
337.194
336.827
343.268
345.713
346.393
346.606
346.677
346.69
346.673
346.642
346.605
346.57
346.541
346.519
346.506
346.501
346.506
346.52
346.542
346.573
346.61
346.651
346.691
346.724
346.739
346.72
346.639
346.412
345.714
343.25
336.801
336.401
342.782
345.529
346.37
346.649
346.738
346.745
346.714
346.668
346.62
346.577
346.542
346.517
346.502
346.498
346.503
346.518
346.543
346.577
346.622
346.674
346.729
346.78
346.812
346.801
346.703
346.408
345.545
342.772
336.38
336.011
342.167
345.289
346.375
346.741
346.831
346.808
346.746
346.677
346.616
346.565
346.528
346.502
346.488
346.484
346.489
346.504
346.53
346.566
346.615
346.676
346.748
346.825
346.893
346.917
346.821
346.439
345.327
342.17
336.001
335.66
341.438
345.09
346.536
346.943
346.946
346.838
346.724
346.631
346.561
346.51
346.476
346.454
346.443
346.441
346.447
346.46
346.482
346.515
346.562
346.625
346.709
346.816
346.942
347.059
347.055
346.636
345.159
341.466
335.662
335.296
341.084
345.603
347.209
347.249
346.938
346.676
346.513
346.418
346.362
346.329
346.311
346.303
346.302
346.304
346.309
346.317
346.329
346.348
346.378
346.425
346.497
346.611
346.795
347.077
347.399
347.355
345.719
341.152
335.317
336.263
342.976
348.846
348.335
346.996
346.138
345.769
345.652
345.638
345.659
345.69
345.723
345.751
345.772
345.785
345.789
345.785
345.772
345.753
345.732
345.713
345.707
345.742
345.886
346.288
347.178
348.536
349.036
343.1
336.31
331.464
360.736
351.986
346.685
343.696
342.647
342.486
342.627
342.84
343.049
343.232
343.38
343.491
343.566
343.604
343.607
343.574
343.504
343.398
343.257
343.082
342.883
342.685
342.567
342.768
343.869
346.909
352.243
361.014
331.507
446.758
363.197
347.461
338.851
336.102
335.386
335.289
335.397
335.586
335.787
335.976
336.138
336.264
336.348
336.391
336.392
336.351
336.269
336.145
335.986
335.801
335.604
335.423
335.33
335.452
336.206
339.012
347.697
363.517
447.455
448.191
363.414
347.574
338.442
335.258
334.274
334.028
334.023
334.106
334.204
334.292
334.364
334.419
334.457
334.474
334.472
334.448
334.406
334.345
334.267
334.173
334.068
333.976
333.964
334.181
335.116
338.227
347.277
363.054
447.633
332.819
361.522
353.48
347.63
343.698
341.943
341.448
341.512
341.771
342.064
342.328
342.542
342.701
342.806
342.856
342.852
342.794
342.682
342.515
342.292
342.018
341.713
341.437
341.346
341.802
343.512
347.408
353.261
361.352
332.939
336.859
344.251
350.603
350.158
348.194
346.708
346.076
345.994
346.144
346.349
346.54
346.692
346.802
346.872
346.903
346.898
346.855
346.775
346.653
346.488
346.284
346.062
345.893
345.952
346.558
348.029
350.006
350.507
344.245
336.89
334.696
341.071
346.374
348.83
349.053
348.6
348.251
348.131
348.158
348.243
348.334
348.409
348.463
348.495
348.508
348.503
348.478
348.434
348.367
348.279
348.173
348.073
348.03
348.137
348.479
348.943
348.756
346.353
341.087
334.722
334.671
340.627
345.085
347.744
348.783
348.977
348.932
348.89
348.895
348.933
348.979
349.019
349.048
349.065
349.07
349.065
349.048
349.02
348.98
348.928
348.87
348.821
348.806
348.846
348.896
348.722
347.715
345.091
340.653
334.703
334.847
341.154
345.267
347.607
348.632
349.004
349.115
349.146
349.167
349.193
349.222
349.247
349.265
349.275
349.278
349.272
349.26
349.239
349.211
349.176
349.139
349.106
349.082
349.054
348.954
348.601
347.6
345.284
341.188
334.883
335.027
341.8
345.841
347.838
348.674
349.027
349.174
349.237
349.271
349.296
349.318
349.336
349.349
349.356
349.357
349.352
349.342
349.326
349.305
349.28
349.252
349.224
349.191
349.133
348.997
348.66
347.841
345.862
341.837
335.066
335.208
342.385
346.359
348.095
348.78
349.075
349.21
349.277
349.314
349.338
349.356
349.369
349.378
349.383
349.383
349.379
349.371
349.359
349.344
349.325
349.304
349.28
349.245
349.185
349.059
348.778
348.106
346.383
342.423
335.245
335.39
342.884
346.748
348.298
348.882
349.127
349.242
349.301
349.334
349.355
349.368
349.378
349.384
349.386
349.386
349.382
349.376
349.368
349.357
349.344
349.329
349.31
349.28
349.227
349.121
348.887
348.314
346.773
342.922
335.425
335.566
343.299
347.032
348.443
348.958
349.168
349.266
349.317
349.344
349.36
349.369
349.375
349.377
349.378
349.377
349.375
349.37
349.365
349.358
349.351
349.341
349.327
349.303
349.259
349.169
348.967
348.462
347.058
343.335
335.597
335.723
343.632
347.237
348.542
349.008
349.197
349.283
349.326
349.348
349.359
349.364
349.366
349.367
349.366
349.364
349.362
349.36
349.357
349.354
349.351
349.346
349.337
349.319
349.281
349.202
349.021
348.562
347.264
343.666
335.752
335.854
343.887
347.382
348.608
349.04
349.215
349.294
349.331
349.349
349.356
349.357
349.357
349.355
349.353
349.351
349.349
349.348
349.347
349.347
349.347
349.346
349.341
349.328
349.295
349.222
349.055
348.629
347.409
343.919
335.881
335.955
344.071
347.481
348.65
349.06
349.225
349.299
349.333
349.347
349.351
349.351
349.348
349.344
349.341
349.339
349.338
349.338
349.339
349.341
349.343
349.345
349.343
349.332
349.303
349.234
349.076
348.672
347.508
344.101
335.981
336.023
344.188
347.542
348.676
349.071
349.23
349.301
349.333
349.345
349.347
349.345
349.341
349.337
349.333
349.33
349.329
349.33
349.332
349.335
349.34
349.343
349.343
349.334
349.306
349.24
349.087
348.697
347.569
344.218
336.048
336.056
344.245
347.571
348.687
349.075
349.231
349.301
349.332
349.343
349.345
349.342
349.337
349.332
349.328
349.325
349.324
349.325
349.328
349.332
349.337
349.341
349.341
349.333
349.306
349.242
349.091
348.708
347.596
344.273
336.081
336.054
344.243
347.569
348.685
349.074
349.23
349.3
349.33
349.342
349.343
349.34
349.335
349.331
349.327
349.324
349.323
349.324
349.327
349.331
349.336
349.34
349.34
349.331
349.304
349.239
349.088
348.705
347.593
344.27
336.078
336.017
344.182
347.537
348.671
349.066
349.226
349.297
349.329
349.341
349.343
349.341
349.337
349.333
349.329
349.327
349.326
349.327
349.329
349.332
349.336
349.339
349.338
349.329
349.3
349.234
349.079
348.689
347.559
344.208
336.04
335.947
344.061
347.472
348.642
349.052
349.218
349.292
349.326
349.34
349.344
349.344
349.341
349.338
349.335
349.333
349.332
349.332
349.333
349.335
349.338
349.339
349.336
349.324
349.293
349.223
349.063
348.658
347.492
344.085
335.968
335.843
343.874
347.369
348.596
349.03
349.204
349.283
349.321
349.338
349.345
349.348
349.347
349.346
349.344
349.343
349.341
349.34
349.34
349.34
349.339
349.337
349.331
349.316
349.282
349.207
349.037
348.608
347.386
343.896
335.862
335.71
343.616
347.221
348.527
348.994
349.183
349.269
349.312
349.334
349.345
349.351
349.354
349.355
349.354
349.353
349.352
349.35
349.347
349.344
349.34
349.334
349.324
349.304
349.264
349.181
348.997
348.535
347.234
343.636
335.728
335.551
343.282
347.013
348.424
348.939
349.15
349.248
349.298
349.326
349.342
349.352
349.358
349.362
349.364
349.364
349.362
349.358
349.353
349.346
349.338
349.327
349.311
349.285
349.238
349.143
348.938
348.427
347.021
343.298
335.568
335.374
342.865
346.725
348.275
348.859
349.103
349.218
349.278
349.311
349.333
349.347
349.358
349.365
349.369
349.369
349.367
349.362
349.354
349.343
349.33
349.313
349.292
349.259
349.202
349.09
348.851
348.272
346.728
342.878
335.39
335.19
342.363
346.332
348.066
348.751
349.045
349.18
349.248
349.286
349.311
349.33
349.345
349.356
349.362
349.364
349.361
349.354
349.343
349.328
349.309
349.287
349.26
349.222
349.157
349.025
348.736
348.056
346.329
342.372
335.204
335.009
341.775
345.807
347.801
348.636
348.989
349.136
349.2
349.236
349.264
349.288
349.308
349.323
349.331
349.334
349.331
349.322
349.307
349.287
349.262
349.234
349.204
349.167
349.104
348.96
348.613
347.784
345.799
341.779
335.02
334.825
341.123
345.226
347.56
348.584
348.957
349.069
349.102
349.126
349.156
349.188
349.215
349.236
349.248
349.252
349.248
349.237
349.218
349.191
349.157
349.12
349.087
349.06
349.027
348.917
348.55
347.534
345.211
341.12
334.83
334.642
340.585
345.032
347.684
348.723
348.918
348.877
348.839
348.85
348.892
348.942
348.985
349.016
349.035
349.042
349.038
349.023
348.997
348.958
348.907
348.851
348.803
348.788
348.824
348.865
348.674
347.645
345.006
340.571
334.639
334.656
341.013
346.305
348.755
348.98
348.531
348.189
348.076
348.108
348.199
348.294
348.372
348.428
348.463
348.477
348.473
348.45
348.407
348.343
348.256
348.153
348.056
348.016
348.123
348.462
348.911
348.695
346.262
340.986
334.641
336.806
344.17
350.51
350.069
348.115
346.639
346.017
345.942
346.097
346.307
346.501
346.656
346.768
346.839
346.871
346.867
346.826
346.747
346.627
346.465
346.263
346.045
345.882
345.948
346.559
348.025
349.978
350.431
344.125
336.785
332.742
361.379
353.375
347.544
343.628
341.887
341.404
341.474
341.737
342.032
342.298
342.513
342.673
342.778
342.829
342.826
342.769
342.658
342.492
342.272
342
341.699
341.429
341.347
341.813
343.533
347.428
353.25
361.247
332.748
447.851
363.296
347.486
338.379
335.211
334.238
333.999
333.999
334.084
334.182
334.27
334.343
334.398
334.436
334.455
334.453
334.43
334.388
334.329
334.253
334.161
334.059
333.97
333.962
334.187
335.137
338.269
347.335
363.107
447.477
439.479
359.903
345.227
336.315
332.77
331.362
330.808
330.61
330.57
330.588
330.623
330.66
330.692
330.716
330.73
330.734
330.727
330.71
330.686
330.657
330.631
330.624
330.679
330.899
331.488
332.95
336.571
345.565
360.296
440.06
330.568
357.718
350.687
345.207
341.082
338.811
337.802
337.485
337.494
337.635
337.81
337.973
338.104
338.197
338.245
338.249
338.209
338.125
338.002
337.849
337.687
337.563
337.577
337.927
338.976
341.289
345.443
350.912
357.891
330.442
334.55
341.717
347.922
347.672
345.619
343.677
342.482
341.953
341.837
341.926
342.09
342.259
342.401
342.501
342.554
342.557
342.512
342.42
342.288
342.13
341.982
341.914
342.056
342.615
343.837
345.79
347.824
348.015
341.715
334.516
331.963
338.272
343.573
346.274
346.622
345.952
345.233
344.805
344.65
344.659
344.739
344.835
344.918
344.979
345.012
345.016
344.991
344.939
344.865
344.781
344.716
344.726
344.903
345.35
346.076
346.732
346.344
343.59
338.256
331.948
331.52
337.232
341.711
344.744
346.187
346.48
346.318
346.111
345.987
345.946
345.956
345.987
346.02
346.047
346.064
346.068
346.06
346.042
346.018
345.998
346.001
346.054
346.19
346.403
346.559
346.243
344.765
341.702
337.212
331.501
331.484
337.31
341.355
344.183
345.803
346.444
346.588
346.561
346.509
346.477
346.469
346.475
346.486
346.498
346.507
346.511
346.511
346.508
346.504
346.507
346.524
346.564
346.62
346.644
346.487
345.824
344.18
341.334
337.284
331.462
331.552
337.706
341.65
344.283
345.747
346.395
346.641
346.711
346.717
346.71
346.705
346.707
346.711
346.718
346.723
346.727
346.729
346.73
346.733
346.738
346.748
346.758
346.751
346.675
346.415
345.748
344.264
341.621
337.676
331.528
331.658
338.149
342.126
344.61
345.857
346.417
346.667
346.772
346.811
346.824
346.829
346.833
346.837
346.842
346.846
346.849
346.852
346.853
346.854
346.855
346.853
346.84
346.798
346.686
346.423
345.848
344.585
342.093
338.119
331.635
331.783
338.572
342.602
344.939
346.003
346.477
346.702
346.811
346.863
346.889
346.902
346.91
346.916
346.921
346.925
346.928
346.93
346.93
346.928
346.923
346.911
346.884
346.828
346.712
346.476
345.99
344.913
342.569
338.543
331.762
331.91
338.952
343.016
345.207
346.138
346.545
346.742
346.845
346.901
346.933
346.952
346.963
346.972
346.977
346.981
346.984
346.984
346.982
346.977
346.967
346.949
346.916
346.856
346.746
346.541
346.124
345.183
342.986
338.926
331.892
332.028
339.277
343.355
345.414
346.248
346.607
346.782
346.877
346.932
346.966
346.988
347.002
347.012
347.019
347.023
347.025
347.024
347.021
347.013
347
346.978
346.942
346.883
346.783
346.601
346.235
345.393
343.329
339.255
332.012
332.13
339.542
343.617
345.57
346.334
346.658
346.816
346.904
346.958
346.993
347.016
347.032
347.043
347.05
347.055
347.056
347.055
347.05
347.04
347.025
347.002
346.965
346.908
346.816
346.652
346.321
345.551
343.594
339.522
332.114
332.21
339.743
343.806
345.68
346.397
346.697
346.844
346.927
346.979
347.013
347.037
347.053
347.065
347.073
347.078
347.079
347.077
347.071
347.06
347.044
347.02
346.984
346.929
346.842
346.691
346.385
345.663
343.786
339.724
332.194
332.267
339.879
343.928
345.75
346.438
346.724
346.864
346.943
346.993
347.027
347.051
347.068
347.081
347.089
347.094
347.095
347.092
347.086
347.074
347.057
347.033
346.997
346.945
346.862
346.718
346.427
345.735
343.909
339.861
332.251
332.296
339.949
343.988
345.785
346.459
346.738
346.874
346.952
347.001
347.035
347.059
347.077
347.089
347.098
347.102
347.103
347.1
347.094
347.082
347.065
347.04
347.005
346.953
346.873
346.732
346.449
345.771
343.97
339.931
332.28
332.298
339.95
343.989
345.786
346.46
346.739
346.875
346.953
347.003
347.036
347.06
347.078
347.091
347.099
347.104
347.105
347.102
347.095
347.083
347.066
347.041
347.006
346.955
346.874
346.734
346.451
345.773
343.972
339.933
332.282
332.271
339.883
343.932
345.754
346.441
346.727
346.867
346.947
346.997
347.031
347.055
347.073
347.085
347.093
347.098
347.099
347.096
347.089
347.078
347.061
347.037
347.002
346.949
346.867
346.723
346.433
345.741
343.916
339.867
332.256
332.217
339.75
343.812
345.685
346.402
346.703
346.85
346.933
346.985
347.02
347.044
347.06
347.072
347.08
347.084
347.085
347.083
347.077
347.066
347.05
347.026
346.991
346.937
346.851
346.7
346.395
345.674
343.797
339.735
332.204
332.139
339.551
343.625
345.577
346.341
346.666
346.825
346.914
346.968
347.003
347.026
347.041
347.052
347.059
347.063
347.065
347.063
347.058
347.048
347.033
347.01
346.975
346.919
346.827
346.665
346.336
345.566
343.611
339.538
332.128
332.04
339.288
343.364
345.422
346.257
346.617
346.793
346.889
346.945
346.98
347.001
347.015
347.025
347.031
347.034
347.036
347.035
347.031
347.023
347.01
346.989
346.954
346.897
346.798
346.618
346.254
345.414
343.351
339.276
332.03
331.924
338.964
343.027
345.217
346.149
346.558
346.757
346.861
346.918
346.95
346.968
346.979
346.987
346.992
346.995
346.997
346.997
346.994
346.989
346.98
346.962
346.93
346.872
346.765
346.562
346.148
345.209
343.014
338.953
331.915
331.797
338.586
342.614
344.951
346.018
346.494
346.721
346.831
346.884
346.91
346.922
346.93
346.935
346.938
346.941
346.943
346.944
346.944
346.942
346.937
346.925
346.9
346.846
346.734
346.502
346.02
344.946
342.603
338.577
331.79
331.673
338.165
342.141
344.627
345.876
346.44
346.693
346.798
346.837
346.849
346.853
346.855
346.858
346.861
346.864
346.866
346.868
346.869
346.869
346.87
346.869
346.858
346.819
346.711
346.454
345.884
344.626
342.135
338.159
331.668
331.569
337.725
341.67
344.306
345.774
346.426
346.674
346.745
346.75
346.74
346.733
346.732
346.735
346.74
346.743
346.746
346.747
346.747
346.749
346.754
346.764
346.777
346.773
346.701
346.449
345.79
344.314
341.672
337.724
331.568
331.505
337.335
341.384
344.217
345.842
346.486
346.632
346.603
346.548
346.512
346.5
346.503
346.512
346.522
346.529
346.532
346.53
346.526
346.521
346.523
346.541
346.581
346.64
346.67
346.522
345.871
344.238
341.396
337.343
331.509
331.546
337.264
341.749
344.791
346.242
346.537
346.373
346.161
346.03
345.984
345.989
346.017
346.048
346.073
346.088
346.09
346.081
346.062
346.036
346.015
346.016
346.07
346.207
346.425
346.59
346.29
344.828
341.773
337.282
331.558
331.995
338.313
343.627
346.341
346.695
346.023
345.297
344.86
344.696
344.698
344.773
344.865
344.947
345.006
345.037
345.04
345.014
344.96
344.884
344.798
344.731
344.739
344.915
345.364
346.097
346.768
346.402
343.667
338.338
332.018
334.584
341.77
348.004
347.763
345.706
343.755
342.548
342.007
341.882
341.965
342.124
342.29
342.43
342.529
342.58
342.583
342.537
342.443
342.309
342.149
341.998
341.926
342.065
342.621
343.844
345.806
347.861
348.083
341.807
334.6
330.577
357.841
350.804
345.314
341.172
338.885
337.862
337.534
337.537
337.673
337.845
338.006
338.136
338.227
338.274
338.277
338.235
338.15
338.025
337.87
337.706
337.578
337.587
337.931
338.974
341.286
345.447
350.942
357.979
330.558
439.813
360.066
345.356
336.411
332.843
331.419
330.855
330.651
330.608
330.623
330.656
330.692
330.722
330.746
330.759
330.762
330.753
330.736
330.71
330.679
330.651
330.642
330.693
330.908
331.489
332.942
336.554
345.548
360.296
440.22
441.233
360.534
345.905
337.116
333.683
332.266
331.647
331.374
331.265
331.225
331.213
331.214
331.219
331.223
331.225
331.223
331.218
331.21
331.203
331.201
331.211
331.249
331.353
331.614
332.209
333.578
336.93
345.632
360.198
440.813
331.654
358.565
351.634
346.222
342.153
339.839
338.707
338.243
338.117
338.145
338.229
338.323
338.404
338.461
338.49
338.488
338.456
338.397
338.314
338.219
338.133
338.101
338.219
338.666
339.767
342.041
346.077
351.496
358.465
331.773
335.904
343.031
349.102
348.847
346.819
344.812
343.455
342.737
342.453
342.41
342.476
342.575
342.669
342.738
342.774
342.773
342.735
342.665
342.57
342.469
342.4
342.437
342.709
343.409
344.743
346.734
348.767
349.061
343.055