/*--------------------------------*- C++ -*----------------------------------*\
| =========                 |                                                 |
| \\      /  F ield         | OpenFOAM: The Open Source CFD Toolbox           |
|  \\    /   O peration     | Version:  2312                                  |
|   \\  /    A nd           | Website:  www.openfoam.com                      |
|    \\/     M anipulation  |                                                 |
\*---------------------------------------------------------------------------*/
FoamFile
{
    version     2.0;
    format      ascii;
    arch        "LSB;label=32;scalar=64";
    class       volVectorField;
    location    "800";
    object      U;
}
// * * * * * * * * * * * * * * * * * * * * * * * * * * * * * * * * * * * * * //

dimensions      [0 1 -1 0 0 0 0];

internalField   nonuniform List<vector> 
27000
(
(-7.70151e-05 0.000112605 0.107319)
(-0.000224787 0.00023071 0.0763643)
(-0.000123018 0.000236919 0.0819028)
(-9.49414e-05 0.000212923 0.0836246)
(-5.98427e-05 0.000204082 0.0855796)
(-3.70964e-05 0.000201044 0.0870988)
(-1.94313e-05 0.000200762 0.0882304)
(-5.98595e-06 0.000201583 0.0891343)
(3.479e-06 0.000203086 0.0898892)
(9.29252e-06 0.000204876 0.0904926)
(1.21696e-05 0.000206627 0.0909582)
(1.28589e-05 0.000208167 0.0913062)
(1.19831e-05 0.000209422 0.0915542)
(1.00627e-05 0.000210372 0.0917147)
(7.55074e-06 0.000210983 0.0917954)
(4.85398e-06 0.000211202 0.0917981)
(2.37273e-06 0.000211024 0.0917228)
(5.29136e-07 0.000210519 0.0915676)
(-2.11266e-07 0.000209697 0.0913244)
(6.97598e-07 0.000208594 0.0909802)
(3.90585e-06 0.000207301 0.0905175)
(1.01788e-05 0.000206012 0.0899153)
(2.02518e-05 0.000205126 0.0891596)
(3.43853e-05 0.000205135 0.0882512)
(5.26279e-05 0.000206462 0.08711)
(7.56811e-05 0.000210723 0.0855739)
(0.00011054 0.000220811 0.083591)
(0.000136736 0.000245291 0.0818263)
(0.000237842 0.000240281 0.0762378)
(8.73754e-05 0.000121217 0.107078)
(0.000304425 -0.000137751 0.0625622)
(0.000120021 -4.20542e-05 0.0834221)
(8.57991e-05 0.00016608 0.0914798)
(4.48036e-05 0.000219929 0.0943688)
(3.78372e-05 0.000242809 0.0958692)
(4.03067e-05 0.00025618 0.0969378)
(4.30807e-05 0.000266616 0.0977248)
(4.49443e-05 0.000275504 0.098316)
(4.52099e-05 0.0002829 0.0987697)
(4.3533e-05 0.000288934 0.0991155)
(3.99554e-05 0.000293718 0.0993729)
(3.47577e-05 0.000297399 0.0995593)
(2.82925e-05 0.000300113 0.0996886)
(2.09352e-05 0.000301979 0.0997708)
(1.30512e-05 0.000303087 0.0998118)
(4.98558e-06 0.000303466 0.0998144)
(-2.91972e-06 0.000303123 0.0997781)
(-1.03194e-05 0.000302007 0.0997)
(-1.68453e-05 0.000300034 0.0995732)
(-2.2134e-05 0.00029708 0.0993867)
(-2.58634e-05 0.000293024 0.0991254)
(-2.77792e-05 0.000287752 0.0987708)
(-2.7866e-05 0.000281232 0.0983011)
(-2.65097e-05 0.000273433 0.0976838)
(-2.44626e-05 0.000264231 0.0968579)
(-2.31084e-05 0.000252129 0.0957391)
(-3.17797e-05 0.000230181 0.0941848)
(-7.56079e-05 0.000176052 0.091258)
(-0.000114497 -3.58255e-05 0.0832149)
(-0.000307549 -0.000139524 0.0624867)
(9.57173e-05 0.00014123 0.0805384)
(0.000115089 0.000171734 0.0897501)
(0.000151397 0.000226907 0.0964998)
(0.000138289 0.000257214 0.0982253)
(0.000119473 0.000274693 0.0989033)
(0.000105207 0.000285705 0.0993684)
(9.37744e-05 0.000293795 0.0997569)
(8.4041e-05 0.000300329 0.100077)
(7.51561e-05 0.000305695 0.100334)
(6.63719e-05 0.000309971 0.100535)
(5.72155e-05 0.000313265 0.100688)
(4.74902e-05 0.000315721 0.100799)
(3.71928e-05 0.0003175 0.100876)
(2.64202e-05 0.000318751 0.100925)
(1.53326e-05 0.000319569 0.100948)
(4.11893e-06 0.000320013 0.100948)
(-7.04024e-06 0.000320073 0.100923)
(-1.796e-05 0.000319698 0.100872)
(-2.84972e-05 0.000318787 0.10079)
(-3.85772e-05 0.000317205 0.100668)
(-4.82399e-05 0.000314811 0.1005)
(-5.77212e-05 0.000311492 0.100276)
(-6.75266e-05 0.000307161 0.099986)
(-7.84284e-05 0.000301743 0.0996222)
(-9.13161e-05 0.000294776 0.0991816)
(-0.000107375 0.000284652 0.0986626)
(-0.000128422 0.000267362 0.0979448)
(-0.000144513 0.000235574 0.0962269)
(-0.000112315 0.000176177 0.0895734)
(-9.7665e-05 0.000139759 0.0804713)
(0.000143663 5.73578e-05 0.0839752)
(0.000149507 0.00015094 0.0938477)
(0.000175727 0.000229442 0.0979373)
(0.000168287 0.000254301 0.0990144)
(0.000153658 0.000267649 0.0994365)
(0.000136903 0.000275901 0.0997287)
(0.000120687 0.000281754 0.0999968)
(0.000105779 0.000286389 0.100244)
(9.21096e-05 0.000290189 0.100461)
(7.92308e-05 0.00029324 0.100641)
(6.67019e-05 0.000295575 0.100783)
(5.42129e-05 0.000297293 0.10089)
(4.15835e-05 0.000298535 0.100966)
(2.87628e-05 0.000299431 0.101013)
(1.5776e-05 0.000300098 0.101035)
(2.68845e-06 0.000300583 0.101032)
(-1.04143e-05 0.000300892 0.101003)
(-2.34749e-05 0.000300968 0.100947)
(-3.64838e-05 0.000300712 0.100858)
(-4.95173e-05 0.000300006 0.100734)
(-6.27728e-05 0.000298722 0.100567)
(-7.65905e-05 0.00029677 0.100356)
(-9.14239e-05 0.000294105 0.100101)
(-0.000107716 0.000290571 0.09981)
(-0.000125541 0.000285657 0.0994983)
(-0.000144091 0.000277904 0.0991724)
(-0.000160691 0.000264186 0.0987413)
(-0.000170571 0.000237279 0.0977027)
(-0.000148043 0.000154014 0.0937232)
(-0.000145882 5.45137e-05 0.0839553)
(0.000137967 8.88465e-05 0.0865667)
(0.000170532 0.000159479 0.0959373)
(0.000196825 0.00022069 0.0987734)
(0.000188186 0.00024268 0.0993819)
(0.000173896 0.000253824 0.0996233)
(0.000156764 0.000260275 0.0998082)
(0.00013889 0.000264421 0.0999981)
(0.00012154 0.000267394 0.100194)
(0.000105109 0.000269656 0.100382)
(8.94954e-05 0.000271379 0.10055)
(7.44421e-05 0.000272639 0.10069)
(5.96942e-05 0.000273535 0.1008)
(4.50526e-05 0.000274178 0.100879)
(3.03906e-05 0.000274703 0.100929)
(1.56585e-05 0.000275198 0.100951)
(8.5102e-07 0.000275729 0.100945)
(-1.40293e-05 0.000276292 0.100911)
(-2.89952e-05 0.000276842 0.100846)
(-4.41064e-05 0.00027729 0.100749)
(-5.94944e-05 0.000277522 0.100617)
(-7.53722e-05 0.000277419 0.10045)
(-9.19869e-05 0.000276874 0.100249)
(-0.000109586 0.000275751 0.100026)
(-0.00012824 0.000273784 0.0997955)
(-0.000147513 0.000270347 0.0995787)
(-0.000166071 0.000264095 0.0993832)
(-0.000181834 0.000252248 0.0991578)
(-0.000192197 0.000228026 0.0986039)
(-0.000168789 0.000162312 0.0958708)
(-0.000138728 8.68659e-05 0.0865802)
(0.000143677 9.0645e-05 0.088429)
(0.000187274 0.000162669 0.0971892)
(0.000212727 0.000210498 0.0992982)
(0.000203369 0.000226983 0.0996611)
(0.000188681 0.00023573 0.0997748)
(0.0001712 0.00024069 0.0998719)
(0.000152589 0.000243624 0.0999935)
(0.000133984 0.000245395 0.100138)
(0.000115881 0.000246449 0.100292)
(9.83676e-05 0.000247024 0.10044)
(8.13546e-05 0.000247295 0.100571)
(6.46816e-05 0.000247394 0.100678)
(4.81864e-05 0.000247459 0.100758)
(3.17486e-05 0.000247608 0.100809)
(1.52875e-05 0.000247944 0.10083)
(-1.23968e-06 0.000248518 0.100823)
(-1.78654e-05 0.000249338 0.100785)
(-3.46335e-05 0.000250357 0.100716)
(-5.1622e-05 0.000251488 0.100615)
(-6.89505e-05 0.000252608 0.100484)
(-8.67632e-05 0.000253568 0.100325)
(-0.000105201 0.000254189 0.100148)
(-0.000124316 0.000254223 0.0999671)
(-0.000143976 0.000253314 0.0998008)
(-0.000163632 0.000250875 0.0996693)
(-0.000182113 0.000245851 0.0995803)
(-0.000197764 0.000236231 0.0994982)
(-0.0002083 0.000217587 0.099195)
(-0.000185004 0.000165777 0.0971731)
(-0.000143332 8.95966e-05 0.0884646)
(0.000149696 9.15664e-05 0.0898153)
(0.000202274 0.000157575 0.0979863)
(0.000225898 0.000195853 0.0996435)
(0.000215701 0.000208531 0.0998782)
(0.000200423 0.000215189 0.0999168)
(0.000182574 0.000218907 0.0999504)
(0.00016353 0.000220896 0.100015)
(0.0001442 0.000221787 0.100111)
(0.000125028 0.000221936 0.100227)
(0.000106162 0.000221621 0.100349)
(8.75997e-05 0.000221069 0.100464)
(6.92726e-05 0.000220479 0.100562)
(5.10808e-05 0.000220019 0.100638)
(3.29325e-05 0.000219832 0.100687)
(1.4765e-05 0.000220019 0.100707)
(-3.46647e-06 0.00022064 0.100698)
(-2.17933e-05 0.000221698 0.100659)
(-4.02549e-05 0.000223147 0.10059)
(-5.89054e-05 0.000224885 0.100493)
(-7.78151e-05 0.000226761 0.100372)
(-9.70582e-05 0.000228572 0.100233)
(-0.000116668 0.000230063 0.100088)
(-0.000136603 0.000230911 0.0999541)
(-0.00015667 0.000230732 0.0998486)
(-0.000176393 0.000229042 0.0997876)
(-0.000194846 0.000225088 0.0997743)
(-0.000210707 0.000217485 0.0997742)
(-0.000221687 0.000202837 0.0995963)
(-0.000199642 0.000161151 0.0980073)
(-0.000148604 9.16996e-05 0.0898647)
(0.000156124 8.92645e-05 0.0908506)
(0.000215517 0.000148289 0.0985123)
(0.000237019 0.000178427 0.0998715)
(0.000225947 0.000188122 0.100038)
(0.00021001 0.000193116 0.100038)
(0.000191762 0.0001958 0.100032)
(0.000172382 0.000197034 0.100056)
(0.000152574 0.000197251 0.100111)
(0.000132675 0.000196736 0.100192)
(0.00011282 0.000195757 0.100286)
(9.30449e-05 0.000194579 0.10038)
(7.33298e-05 0.000193446 0.100465)
(5.36319e-05 0.000192563 0.100532)
(3.391e-05 0.000192097 0.100576)
(1.41358e-05 0.000192163 0.100594)
(-5.70263e-06 0.000192823 0.100584)
(-2.56102e-05 0.000194082 0.100547)
(-4.55901e-05 0.000195879 0.100483)
(-6.56532e-05 0.000198097 0.100396)
(-8.58148e-05 0.000200546 0.100291)
(-0.000106083 0.000202975 0.100177)
(-0.00012644 0.000205072 0.100068)
(-0.000146815 0.000206482 0.0999785)
(-0.000167043 0.000206836 0.0999234)
(-0.000186773 0.000205758 0.0999132)
(-0.000205311 0.000202742 0.0999452)
(-0.000221556 0.00019682 0.0999843)
(-0.000233136 0.0001854 0.0998673)
(-0.000212843 0.000152431 0.0985587)
(-0.000154629 9.05088e-05 0.0909077)
(0.000163076 8.4023e-05 0.0916441)
(0.000227298 0.000135555 0.0988676)
(0.000246614 0.000159095 0.10002)
(0.000234583 0.000166324 0.100148)
(0.00021792 0.000169935 0.100131)
(0.000199225 0.000171717 0.100105)
(0.000179513 0.000172314 0.100102)
(0.000159325 0.000172007 0.100128)
(0.000138888 0.000171015 0.100179)
(0.000118292 0.000169584 0.100246)
(9.75662e-05 0.000167985 0.100319)
(7.67136e-05 0.00016648 0.100388)
(5.57339e-05 0.000165305 0.100443)
(3.4634e-05 0.000164642 0.100481)
(1.34329e-05 0.00016462 0.100495)
(-7.83468e-06 0.000165306 0.100486)
(-2.91261e-05 0.0001667 0.100453)
(-5.03983e-05 0.000168733 0.100397)
(-7.161e-05 0.000171264 0.100323)
(-9.27285e-05 0.000174076 0.100239)
(-0.000113724 0.000176887 0.100152)
(-0.000134561 0.00017936 0.100076)
(-0.000155191 0.000181143 0.100024)
(-0.000175512 0.000181913 0.100005)
(-0.000195303 0.00018139 0.100027)
(-0.00021406 0.00017925 0.100081)
(-0.000230834 0.000174804 0.100134)
(-0.000243188 0.000166111 0.100046)
(-0.000224794 0.000140241 0.0989299)
(-0.000161391 8.61581e-05 0.091702)
(0.000169864 7.61338e-05 0.0922585)
(0.000237625 0.000120054 0.0991115)
(0.000254902 0.000138182 0.100112)
(0.000241901 0.000143383 0.100219)
(0.00022449 0.000145807 0.100196)
(0.000205289 0.000146805 0.100161)
(0.000185227 0.000146854 0.100143)
(0.000164687 0.000146138 0.100149)
(0.00014381 0.000144824 0.100178)
(0.00012263 0.000143124 0.100223)
(0.00010115 0.000141291 0.100277)
(7.93803e-05 0.000139589 0.100329)
(5.73464e-05 0.000138257 0.100373)
(3.50933e-05 0.000137487 0.100403)
(1.26907e-05 0.000137415 0.100414)
(-9.77789e-06 0.000138106 0.100406)
(-3.22197e-05 0.000139558 0.100378)
(-5.45397e-05 0.000141694 0.100332)
(-7.66539e-05 0.00014436 0.100273)
(-9.84938e-05 0.000147328 0.100209)
(-0.000120011 0.000150307 0.100147)
(-0.000141184 0.000152969 0.100099)
(-0.000161998 0.00015499 0.100074)
(-0.00018243 0.0001561 0.10008)
(-0.000202366 0.000156099 0.100118)
(-0.000221451 0.000154785 0.10018)
(-0.000238835 0.00015166 0.100234)
(-0.000252011 0.000145265 0.10016)
(-0.000235425 0.000125211 0.099183)
(-0.000168198 7.8971e-05 0.0923151)
(0.00017601 6.61285e-05 0.0927238)
(0.000246421 0.000102345 0.0992775)
(0.000261927 0.000115944 0.100167)
(0.000248031 0.000119453 0.100259)
(0.000229915 0.00012085 0.100235)
(0.000210219 0.000121177 0.100199)
(0.000189788 0.000120759 0.100174)
(0.000168906 0.000119728 0.100168)
(0.000147638 0.000118212 0.100181)
(0.000125971 0.000116388 0.10021)
(0.000103883 0.000114481 0.100247)
(8.1379e-05 0.000112733 0.100285)
(5.84976e-05 0.00011137 0.100318)
(3.53184e-05 0.000110577 0.100341)
(1.19475e-05 0.000110485 0.100349)
(-1.14851e-05 0.000111156 0.100342)
(-3.48392e-05 0.000112586 0.100319)
(-5.79799e-05 0.000114696 0.100283)
(-8.07874e-05 0.000117333 0.100239)
(-0.000103171 0.000120276 0.100193)
(-0.000125085 0.00012325 0.100152)
(-0.00014652 0.000125958 0.100125)
(-0.000167511 0.000128122 0.100119)
(-0.000188094 0.000129521 0.100139)
(-0.000208235 0.000130014 0.100185)
(-0.000227689 0.000129462 0.100246)
(-0.000245663 0.000127529 0.100296)
(-0.000259613 0.000123078 0.100229)
(-0.000244598 0.000107882 0.0993544)
(-0.000174478 6.94875e-05 0.0927799)
(0.000181247 5.44568e-05 0.0930654)
(0.000253632 8.28842e-05 0.0993871)
(0.000267703 9.26005e-05 0.100195)
(0.000253043 9.46861e-05 0.100277)
(0.000234318 9.52124e-05 0.100255)
(0.000214173 9.49532e-05 0.10022)
(0.000193392 9.41419e-05 0.100193)
(0.000172185 9.28743e-05 0.100181)
(0.000150565 9.125e-05 0.100184)
(0.000128484 8.94153e-05 0.100201)
(0.0001059 8.75581e-05 0.100225)
(8.28096e-05 8.58848e-05 0.100252)
(5.92643e-05 8.45923e-05 0.100276)
(3.53608e-05 8.3844e-05 0.100292)
(1.12391e-05 8.37541e-05 0.100298)
(-1.29359e-05 8.43805e-05 0.100292)
(-3.699e-05 8.5716e-05 0.100275)
(-6.07549e-05 8.76881e-05 0.100248)
(-8.40878e-05 9.0159e-05 0.100216)
(-0.00010689 9.29323e-05 0.100185)
(-0.000129115 9.57703e-05 0.10016)
(-0.00015078 9.84234e-05 0.100148)
(-0.00017195 0.00010066 0.100154)
(-0.000192707 0.000102311 0.100181)
(-0.000213075 0.000103262 0.100227)
(-0.000232874 0.00010342 0.100285)
(-0.000251365 0.000102539 0.100329)
(-0.000265966 9.97492e-05 0.100266)
(-0.000252217 8.87118e-05 0.0994673)
(-0.000179908 5.82116e-05 0.0931213)
(0.000185409 4.15184e-05 0.0933038)
(0.000259216 6.20771e-05 0.0994556)
(0.00027221 6.83606e-05 0.100206)
(0.000256958 6.92291e-05 0.100281)
(0.000237754 6.90116e-05 0.100261)
(0.000217242 6.82537e-05 0.100228)
(0.000196158 6.71194e-05 0.100201)
(0.000174665 6.5683e-05 0.100186)
(0.000152741 6.40271e-05 0.100183)
(0.000130314 6.22674e-05 0.100192)
(0.000107331 6.05522e-05 0.100208)
(8.37837e-05 5.90437e-05 0.100226)
(5.97282e-05 5.7897e-05 0.100243)
(3.52789e-05 5.72416e-05 0.100255)
(1.05953e-05 5.71703e-05 0.100259)
(-1.41326e-05 5.77276e-05 0.100254)
(-3.87047e-05 5.89085e-05 0.100241)
(-6.29322e-05 6.06539e-05 0.100221)
(-8.6659e-05 6.28531e-05 0.100199)
(-0.00010978 6.53497e-05 0.100178)
(-0.000132258 6.79577e-05 0.100165)
(-0.000154123 7.04802e-05 0.100162)
(-0.000175465 7.27411e-05 0.100176)
(-0.000196393 7.46014e-05 0.100206)
(-0.000216965 7.59726e-05 0.100251)
(-0.000237049 7.67752e-05 0.100303)
(-0.000255937 7.68254e-05 0.100342)
(-0.000271036 7.54822e-05 0.100283)
(-0.000258218 6.81199e-05 0.0995376)
(-0.000184292 4.55898e-05 0.0933596)
(0.000188385 2.7677e-05 0.0934537)
(0.00026314 4.02991e-05 0.0994934)
(0.000275423 4.34529e-05 0.100207)
(0.000259768 4.32539e-05 0.100277)
(0.000240234 4.23928e-05 0.100258)
(0.000219456 4.12094e-05 0.100227)
(0.000198144 3.98137e-05 0.1002)
(0.000176426 3.82684e-05 0.100184)
(0.000154261 3.66412e-05 0.100178)
(0.000131565 3.50218e-05 0.100182)
(0.000108277 3.35157e-05 0.100193)
(8.43889e-05 3.22352e-05 0.100206)
(5.99621e-05 3.12867e-05 0.100218)
(3.51193e-05 3.07585e-05 0.100227)
(1.00351e-05 3.07132e-05 0.10023)
(-1.50845e-05 3.11825e-05 0.100226)
(-4.00237e-05 3.21636e-05 0.100215)
(-6.45811e-05 3.36172e-05 0.100201)
(-8.85924e-05 3.5469e-05 0.100185)
(-0.000111952 3.76136e-05 0.100171)
(-0.000134625 3.9923e-05 0.100164)
(-0.000156653 4.22617e-05 0.100168)
(-0.000178138 4.45012e-05 0.100185)
(-0.000199204 4.65354e-05 0.100216)
(-0.000219931 4.82832e-05 0.100259)
(-0.000240212 4.9671e-05 0.100308)
(-0.000259364 5.05585e-05 0.100344)
(-0.000274784 5.05045e-05 0.100287)
(-0.000262558 4.65026e-05 0.0995763)
(-0.000187511 3.20164e-05 0.0935095)
(0.0001901 1.32696e-05 0.0935245)
(0.000265373 1.7912e-05 0.0995071)
(0.000277311 1.8115e-05 0.100202)
(0.000261448 1.69459e-05 0.100269)
(0.000241738 1.55103e-05 0.10025)
(0.000220811 1.39566e-05 0.100219)
(0.000199359 1.23495e-05 0.100193)
(0.000177495 1.07423e-05 0.100176)
(0.000155168 9.19238e-06 0.100169)
(0.000132289 7.76109e-06 0.100171)
(0.000108796 6.51109e-06 0.100179)
(8.46815e-05 5.50219e-06 0.100189)
(6.00102e-05 4.78653e-06 0.1002)
(3.49118e-05 4.40669e-06 0.100207)
(9.56893e-06 4.3924e-06 0.100209)
(-1.58028e-05 4.76037e-06 0.100205)
(-4.0979e-05 5.51109e-06 0.100197)
(-6.5751e-05 6.62989e-06 0.100185)
(-8.99503e-05 8.08391e-06 0.100172)
(-0.00011347 9.82438e-06 0.100162)
(-0.000136277 1.17876e-05 0.100158)
(-0.000158418 1.38997e-05 0.100164)
(-0.000179999 1.60809e-05 0.100182)
(-0.000201152 1.82523e-05 0.100213)
(-0.000221964 2.03383e-05 0.100256)
(-0.000242344 2.22633e-05 0.100303)
(-0.00026162 2.39224e-05 0.100338)
(-0.000277186 2.50602e-05 0.100283)
(-0.00026521 2.42373e-05 0.0995901)
(-0.000189488 1.78548e-05 0.0935802)
(0.000190508 -1.3769e-06 0.0935211)
(0.00026589 -4.72915e-06 0.0995002)
(0.000277851 -7.40906e-06 0.100193)
(0.000261974 -9.50509e-06 0.100259)
(0.000242243 -1.14786e-05 0.100239)
(0.000221285 -1.33678e-05 0.100207)
(0.000199789 -1.51517e-05 0.10018)
(0.000177867 -1.67856e-05 0.100163)
(0.000155467 -1.82238e-05 0.100156)
(0.000132501 -1.94333e-05 0.100158)
(0.000108907 -2.03959e-05 0.100166)
(8.46808e-05 -2.11066e-05 0.100176)
(5.98901e-05 -2.15685e-05 0.100187)
(3.46674e-05 -2.17876e-05 0.100194)
(9.19972e-06 -2.17673e-05 0.100196)
(-1.62941e-05 -2.15081e-05 0.100193)
(-4.1586e-05 -2.10031e-05 0.100184)
(-6.64643e-05 -2.02434e-05 0.100172)
(-9.07586e-05 -1.92162e-05 0.100159)
(-0.00011436 -1.79122e-05 0.100149)
(-0.000137235 -1.63283e-05 0.100145)
(-0.000159429 -1.44761e-05 0.100151)
(-0.000181049 -1.23857e-05 0.100169)
(-0.000202226 -1.01093e-05 0.1002)
(-0.000223047 -7.71722e-06 0.100243)
(-0.000243425 -5.28773e-06 0.100291)
(-0.000262686 -2.89219e-06 0.100327)
(-0.000278221 -6.04951e-07 0.100273)
(-0.00026615 1.68656e-06 0.0995823)
(-0.000190177 3.43765e-06 0.0935765)
(0.000189595 -1.59311e-05 0.0934435)
(0.000264674 -2.7268e-05 0.0994729)
(0.000277022 -3.28721e-05 0.10018)
(0.000261327 -3.59057e-05 0.100247)
(0.000241728 -3.84149e-05 0.100225)
(0.000220858 -4.06269e-05 0.100191)
(0.000199414 -4.25702e-05 0.100163)
(0.000177522 -4.42097e-05 0.100145)
(0.000155139 -4.55153e-05 0.100139)
(0.000132181 -4.64839e-05 0.100143)
(0.000108593 -4.71434e-05 0.100153)
(8.43737e-05 -4.75444e-05 0.100167)
(5.95911e-05 -4.7745e-05 0.10018)
(3.43798e-05 -4.77983e-05 0.100189)
(8.92442e-06 -4.77421e-05 0.100192)
(-1.65572e-05 -4.75904e-05 0.100188)
(-4.18396e-05 -4.73343e-05 0.100178)
(-6.67129e-05 -4.69377e-05 0.100163)
(-9.10058e-05 -4.6347e-05 0.100147)
(-0.000114608 -4.54931e-05 0.100133)
(-0.000137483 -4.43084e-05 0.100126)
(-0.000159669 -4.274e-05 0.100129)
(-0.000181268 -4.07672e-05 0.100146)
(-0.000202406 -3.84128e-05 0.100177)
(-0.000223163 -3.5738e-05 0.100221)
(-0.000243436 -3.28199e-05 0.100272)
(-0.000262547 -2.96917e-05 0.10031)
(-0.000277877 -2.62426e-05 0.100257)
(-0.000265372 -2.07911e-05 0.0995528)
(-0.000189575 -1.09005e-05 0.0934983)
(0.000187379 -3.00542e-05 0.0932872)
(0.000261718 -4.93429e-05 0.099422)
(0.000274815 -5.8025e-05 0.100162)
(0.000259493 -6.20639e-05 0.100231)
(0.000240177 -6.51389e-05 0.100206)
(0.000219506 -6.76849e-05 0.100169)
(0.000198204 -6.9786e-05 0.100139)
(0.000176422 -7.14258e-05 0.100122)
(0.000154137 -7.25929e-05 0.100119)
(0.00013128 -7.33179e-05 0.100127)
(0.000107804 -7.36771e-05 0.100143)
(8.37135e-05 -7.37745e-05 0.100163)
(5.90775e-05 -7.37214e-05 0.10018)
(3.40254e-05 -7.36147e-05 0.100193)
(8.73654e-06 -7.35218e-05 0.100197)
(-1.65823e-05 -7.34717e-05 0.100193)
(-4.17142e-05 -7.34506e-05 0.10018)
(-6.64567e-05 -7.34029e-05 0.10016)
(-9.06431e-05 -7.32342e-05 0.100137)
(-0.00011416 -7.2824e-05 0.100116)
(-0.000136967 -7.20407e-05 0.100101)
(-0.00015909 -7.07684e-05 0.100098)
(-0.000180621 -6.89334e-05 0.100111)
(-0.000201668 -6.65213e-05 0.100142)
(-0.000222292 -6.3579e-05 0.100188)
(-0.000242367 -6.01716e-05 0.100243)
(-0.000261192 -5.62847e-05 0.100286)
(-0.000276144 -5.16049e-05 0.100233)
(-0.000262863 -4.28319e-05 0.0994984)
(-0.000187696 -2.48174e-05 0.093341)
(0.000183917 -4.3394e-05 0.0930429)
(0.000257026 -7.05801e-05 0.0993414)
(0.000271229 -8.26208e-05 0.100135)
(0.000256461 -8.77874e-05 0.100208)
(0.000237571 -9.14936e-05 0.100179)
(0.0002172 -9.44052e-05 0.100138)
(0.000196109 -9.66795e-05 0.100107)
(0.000174499 -9.83299e-05 0.100093)
(0.000152382 -9.93702e-05 0.100095)
(0.00012971 -9.98705e-05 0.100112)
(0.000106453 -9.9955e-05 0.100137)
(8.26233e-05 -9.97792e-05 0.100165)
(5.82872e-05 -9.95004e-05 0.10019)
(3.35672e-05 -9.92525e-05 0.100208)
(8.62446e-06 -9.91271e-05 0.100214)
(-1.63513e-05 -9.91656e-05 0.100209)
(-4.11639e-05 -9.93512e-05 0.100191)
(-6.56266e-05 -9.96128e-05 0.100164)
(-8.95819e-05 -9.98254e-05 0.100132)
(-0.00011292 -9.98239e-05 0.100099)
(-0.00013559 -9.94212e-05 0.100073)
(-0.000157607 -9.84413e-05 0.10006)
(-0.000179035 -9.67523e-05 0.100066)
(-0.000199959 -9.42983e-05 0.100094)
(-0.000220403 -9.10958e-05 0.100142)
(-0.000240198 -8.71855e-05 0.100202)
(-0.000258609 -8.24832e-05 0.10025)
(-0.000273016 -7.64501e-05 0.100196)
(-0.000258621 -6.40644e-05 0.0994124)
(-0.000184592 -3.79661e-05 0.0930951)
(0.000179303 -5.55658e-05 0.092696)
(0.000250607 -9.05841e-05 0.0992205)
(0.000266262 -0.00010642 0.100091)
(0.000252213 -0.000112895 0.100171)
(0.000233873 -0.000117332 0.100139)
(0.000213877 -0.000120658 0.100096)
(0.000193044 -0.000123135 0.100066)
(0.000171647 -0.000124821 0.100057)
(0.000149749 -0.000125768 0.10007)
(0.000127343 -0.000126089 0.100099)
(0.000104418 -0.000125956 0.100137)
(8.09969e-05 -0.000125568 0.100177)
(5.71416e-05 -0.000125118 0.100212)
(3.29553e-05 -0.000124766 0.100236)
(8.57496e-06 -0.00012462 0.100246)
(-1.58421e-05 -0.000124728 0.100239)
(-4.01295e-05 -0.000125076 0.100216)
(-6.41286e-05 -0.00012558 0.10018)
(-8.77019e-05 -0.0001261 0.100135)
(-0.000110747 -0.000126436 0.100087)
(-0.000133208 -0.000126361 0.100045)
(-0.000155077 -0.000125644 0.100017)
(-0.00017639 -0.000124096 0.100011)
(-0.000197184 -0.000121607 0.100031)
(-0.00021743 -0.000118151 0.100077)
(-0.000236889 -0.000113715 0.100142)
(-0.000254778 -0.000108117 0.100197)
(-0.000268488 -0.000100548 0.100139)
(-0.000252648 -8.40952e-05 0.0992843)
(-0.000180358 -4.99469e-05 0.0927461)
(0.000173689 -6.61391e-05 0.0922257)
(0.000242482 -0.000108934 0.0990443)
(0.000259914 -0.0001292 0.100021)
(0.000246711 -0.000137238 0.100113)
(0.000229007 -0.000142531 0.10008)
(0.000209425 -0.000146327 0.100037)
(0.000188864 -0.000149044 0.100014)
(0.000167699 -0.000150807 0.100018)
(0.000146069 -0.000151721 0.100046)
(0.000124015 -0.000151943 0.100093)
(0.000101555 -0.000151689 0.100149)
(7.87187e-05 -0.000151187 0.100204)
(5.55548e-05 -0.000150652 0.10025)
(3.21392e-05 -0.000150253 0.100282)
(8.57147e-06 -0.000150106 0.100294)
(-1.50336e-05 -0.000150264 0.100286)
(-3.85526e-05 -0.000150711 0.100258)
(-6.18653e-05 -0.000151367 0.100211)
(-8.48658e-05 -0.00015208 0.100151)
(-0.00010747 -0.000152642 0.100085)
(-0.000129624 -0.000152798 0.100022)
(-0.0001513 -0.000152278 0.0999727)
(-0.000172491 -0.000150843 0.0999471)
(-0.000193178 -0.000148319 0.099953)
(-0.000213246 -0.000144614 0.0999923)
(-0.000232358 -0.00013964 0.100057)
(-0.000249657 -0.000133045 0.100116)
(-0.000262558 -0.000123694 0.100052)
(-0.000244968 -0.000102509 0.0990981)
(-0.000175154 -6.03122e-05 0.0922734)
(0.000167332 -7.46379e-05 0.091606)
(0.000232693 -0.000125161 0.098791)
(0.000252163 -0.000150742 0.0999143)
(0.000239871 -0.000160662 0.100026)
(0.000222842 -0.000166946 0.0999961)
(0.000203673 -0.000171294 0.0999617)
(0.000183363 -0.000174303 0.0999537)
(0.000162441 -0.000176209 0.0999782)
(0.000141139 -0.00017718 0.10003)
(0.000119553 -0.000177429 0.1001)
(9.77289e-05 -0.000177192 0.100177)
(7.56902e-05 -0.000176715 0.100249)
(5.3462e-05 -0.000176206 0.100307)
(3.10812e-05 -0.000175839 0.100346)
(8.59806e-06 -0.000175722 0.100362)
(-1.39191e-05 -0.000175907 0.100353)
(-3.63986e-05 -0.000176382 0.100319)
(-5.87674e-05 -0.000177072 0.100263)
(-8.09608e-05 -0.000177834 0.100188)
(-0.000102928 -0.000178464 0.100101)
(-0.00012463 -0.000178706 0.100013)
(-0.000146029 -0.000178273 0.0999356)
(-0.000167081 -0.000176883 0.0998819)
(-0.000187692 -0.000174305 0.0998633)
(-0.000207649 -0.000170354 0.0998854)
(-0.000226452 -0.000164813 0.0999418)
(-0.000243155 -0.000157128 0.1)
(-0.000255205 -0.000145689 0.0999223)
(-0.000235631 -0.000118854 0.0988314)
(-0.000169266 -6.85665e-05 0.0916509)
(0.000160702 -8.04788e-05 0.0908075)
(0.000221321 -0.000138703 0.0984275)
(0.00024296 -0.000170791 0.0997522)
(0.000231563 -0.000183009 0.0998981)
(0.000215167 -0.000190458 0.0998848)
(0.00019635 -0.000195446 0.0998714)
(0.000176264 -0.000198815 0.0998912)
(0.000155621 -0.000200955 0.0999473)
(0.000134756 -0.000202125 0.100031)
(0.00011382 -0.000202564 0.100129)
(9.2858e-05 -0.000202527 0.100228)
(7.1874e-05 -0.000202237 0.100316)
(5.08504e-05 -0.000201893 0.100386)
(2.97721e-05 -0.000201643 0.100432)
(8.64464e-06 -0.000201591 0.100451)
(-1.25181e-05 -0.000201784 0.100442)
(-3.36864e-05 -0.000202214 0.100403)
(-5.48356e-05 -0.000202813 0.100338)
(-7.59512e-05 -0.000203459 0.100249)
(-9.70263e-05 -0.000203965 0.100143)
(-0.000118057 -0.000204101 0.100028)
(-0.000139022 -0.000203588 0.099917)
(-0.000159855 -0.000202133 0.099826)
(-0.000180402 -0.000199445 0.0997702)
(-0.000200321 -0.00019524 0.0997601)
(-0.000218931 -0.000189105 0.0997938)
(-0.000235118 -0.000180212 0.0998373)
(-0.000246371 -0.000166295 0.0997308)
(-0.000224723 -0.00013259 0.0984496)
(-0.000163204 -7.41506e-05 0.0908477)
(0.000154579 -8.33368e-05 0.0897698)
(0.000208377 -0.000148869 0.0978949)
(0.000232086 -0.000189017 0.0995101)
(0.00022148 -0.000204028 0.0997215)
(0.000205643 -0.000212896 0.0997469)
(0.000187109 -0.000218638 0.0997744)
(0.000167261 -0.000222462 0.0998382)
(0.000147003 -0.000224976 0.0999371)
(0.000126788 -0.000226522 0.100058)
(0.000106772 -0.000227363 0.100186)
(8.69717e-05 -0.000227727 0.100306)
(6.73348e-05 -0.000227802 0.100409)
(4.77828e-05 -0.000227753 0.100487)
(2.82532e-05 -0.000227705 0.100538)
(8.70218e-06 -0.000227753 0.100559)
(-1.08812e-05 -0.000227939 0.10055)
(-3.05049e-05 -0.000228258 0.100509)
(-5.01788e-05 -0.000228655 0.100439)
(-6.99272e-05 -0.00022902 0.10034)
(-8.98001e-05 -0.000229203 0.100217)
(-0.00010985 -0.000229007 0.100076)
(-0.000130106 -0.000228202 0.0999302)
(-0.000150527 -0.000226506 0.0997947)
(-0.00017093 -0.000223609 0.0996885)
(-0.000190858 -0.000219104 0.0996273)
(-0.000209395 -0.000212335 0.0996151)
(-0.000225206 -0.000202046 0.0996189)
(-0.000235824 -0.000185199 0.0994516)
(-0.000212259 -0.000143046 0.0978927)
(-0.000157689 -7.67263e-05 0.0898003)
(0.000148873 -8.29665e-05 0.0883806)
(0.000193564 -0.000154948 0.0970912)
(0.000218984 -0.000204534 0.0991505)
(0.000209126 -0.000223147 0.0994886)
(0.000193765 -0.000233831 0.099591)
(0.000175498 -0.000240518 0.0996852)
(0.000155987 -0.000244972 0.0998095)
(0.000136381 -0.00024806 0.0999599)
(0.000117181 -0.00025022 0.100121)
(9.84873e-05 -0.000251701 0.100276)
(8.02227e-05 -0.00025267 0.100413)
(6.22406e-05 -0.000253272 0.100524)
(4.44021e-05 -0.000253624 0.100607)
(2.65987e-05 -0.000253847 0.100659)
(8.77603e-06 -0.00025402 0.100681)
(-9.09158e-06 -0.000254192 0.100672)
(-2.70117e-05 -0.000254356 0.100632)
(-4.50002e-05 -0.000254462 0.100561)
(-6.31118e-05 -0.000254417 0.100459)
(-8.14341e-05 -0.000254089 0.100325)
(-0.000100095 -0.000253334 0.100165)
(-0.000119211 -0.000251977 0.0999868)
(-0.000138837 -0.000249808 0.0998046)
(-0.000158851 -0.000246511 0.0996377)
(-0.000178709 -0.000241586 0.0995061)
(-0.000197268 -0.000234059 0.099418)
(-0.000212858 -0.000222058 0.0993395)
(-0.000222964 -0.000201527 0.099047)
(-0.000197966 -0.000149597 0.097058)
(-0.000152705 -7.61426e-05 0.0883973)
(0.000143367 -8.18849e-05 0.0865132)
(0.000176792 -0.000152843 0.0958315)
(0.000202944 -0.00021569 0.0986123)
(0.000193702 -0.00023956 0.0991965)
(0.000178638 -0.000252347 0.0994307)
(0.000160623 -0.000260197 0.0996177)
(0.000141781 -0.000265545 0.0998146)
(0.000123388 -0.000269526 0.10002)
(0.000105843 -0.000272623 0.100216)
(8.90592e-05 -0.00027501 0.100392)
(7.27836e-05 -0.000276784 0.100537)
(5.67781e-05 -0.00027803 0.100651)
(4.08494e-05 -0.000278864 0.100732)
(2.48891e-05 -0.000279396 0.100782)
(8.85814e-06 -0.000279714 0.100803)
(-7.2357e-06 -0.000279869 0.100796)
(-2.3367e-05 -0.000279855 0.100759)
(-3.9532e-05 -0.000279622 0.100692)
(-5.57601e-05 -0.000279074 0.100593)
(-7.21608e-05 -0.000278094 0.100458)
(-8.89106e-05 -0.000276558 0.100289)
(-0.000106245 -0.000274361 0.100088)
(-0.000124386 -0.000271373 0.0998638)
(-0.000143401 -0.00026737 0.0996333)
(-0.000162877 -0.000261784 0.0994167)
(-0.000181488 -0.000253352 0.0992224)
(-0.000197129 -0.000239443 0.0990006)
(-0.000206966 -0.000213664 0.0984583)
(-0.000181655 -0.000148183 0.0957595)
(-0.000147989 -7.52008e-05 0.0865109)
(0.000149512 -5.08008e-05 0.0839142)
(0.000155554 -0.000145474 0.0937354)
(0.00018144 -0.00022554 0.0977676)
(0.000173275 -0.000251955 0.0988237)
(0.000157783 -0.000266586 0.0992451)
(0.000140099 -0.000275898 0.0995453)
(0.000122888 -0.000282626 0.0998244)
(0.000106952 -0.000287977 0.100083)
(9.22081e-05 -0.000292367 0.100309)
(7.8221e-05 -0.000295886 0.100495)
(6.45583e-05 -0.000298574 0.100642)
(5.09094e-05 -0.000300526 0.100751)
(3.71027e-05 -0.000301872 0.100827)
(2.3093e-05 -0.000302732 0.100874)
(8.91123e-06 -0.000303209 0.100894)
(-5.36297e-06 -0.000303349 0.100888)
(-1.96381e-05 -0.000303153 0.100857)
(-3.38336e-05 -0.000302564 0.100797)
(-4.79229e-05 -0.00030148 0.100706)
(-6.19532e-05 -0.000299777 0.100579)
(-7.61003e-05 -0.000297325 0.100411)
(-9.06612e-05 -0.000294032 0.100199)
(-0.000106071 -0.000289844 0.0999436)
(-0.000122756 -0.000284632 0.0996528)
(-0.000140777 -0.000277917 0.0993423)
(-0.000159326 -0.000268339 0.099018)
(-0.000175726 -0.000252918 0.098591)
(-0.00018494 -0.000224796 0.0975655)
(-0.00016043 -0.000141905 0.0936218)