/*--------------------------------*- C++ -*----------------------------------*\
| =========                 |                                                 |
| \\      /  F ield         | OpenFOAM: The Open Source CFD Toolbox           |
|  \\    /   O peration     | Version:  2312                                  |
|   \\  /    A nd           | Website:  www.openfoam.com                      |
|    \\/     M anipulation  |                                                 |
\*---------------------------------------------------------------------------*/
FoamFile
{
    version     2.0;
    format      ascii;
    arch        "LSB;label=32;scalar=64";
    class       volScalarField;
    location    "200";
    object      alphat;
}
// * * * * * * * * * * * * * * * * * * * * * * * * * * * * * * * * * * * * * //

dimensions      [1 -1 -1 0 0 0 0];

internalField   nonuniform List<scalar> 
27000
(
0.00395127
0.00670529
0.00936189
0.0117374
0.0140453
0.0161988
0.0181535
0.0198042
0.0212241
0.022437
0.0234384
0.0242317
0.0248244
0.0252194
0.0254177
0.0254199
0.0252259
0.0248349
0.0242455
0.0234542
0.0224517
0.0212387
0.019818
0.0181656
0.0162082
0.0140512
0.0117392
0.00935983
0.00670163
0.003949
0.00575215
0.00128647
0.00516853
0.00908868
0.0131854
0.0170809
0.0207593
0.0241756
0.0272645
0.030006
0.0323851
0.0343614
0.0358843
0.0369164
0.0374336
0.0374243
0.0368892
0.0358415
0.0343071
0.0323268
0.0299517
0.0272113
0.0241259
0.0207161
0.0170473
0.013163
0.00907837
0.00516118
0.00128161
0.00574921
0.00922678
0.00715209
0.0144934
0.0260921
0.0368462
0.0462545
0.0548696
0.0629328
0.0702598
0.0767155
0.0822366
0.0867642
0.0902219
0.0925498
0.0937124
0.0936945
0.0924987
0.0901457
0.0866775
0.0821575
0.0766525
0.0702094
0.0628968
0.0548476
0.0462464
0.0368471
0.0261225
0.0145237
0.0071308
0.00922588
0.0121532
0.0108619
0.0260396
0.0525764
0.07823
0.0963818
0.109896
0.120964
0.130299
0.138058
0.144415
0.149477
0.153263
0.155781
0.157034
0.157029
0.15577
0.153257
0.149487
0.144448
0.138101
0.130354
0.121011
0.109901
0.0963326
0.0781766
0.0526049
0.0260758
0.0108399
0.0121566
0.0149168
0.0145066
0.0368903
0.0761848
0.113359
0.139283
0.15613
0.167937
0.176842
0.183347
0.188284
0.192152
0.195005
0.196882
0.197814
0.197817
0.196893
0.195029
0.192192
0.188317
0.18331
0.176843
0.167922
0.156037
0.139144
0.113271
0.0762217
0.0369143
0.0144796
0.0149245
0.0174765
0.0184552
0.0477616
0.0952786
0.137919
0.167392
0.18559
0.196945
0.204429
0.209505
0.213041
0.21558
0.21737
0.21852
0.219084
0.219085
0.218525
0.21738
0.215592
0.21304
0.209476
0.204386
0.196862
0.185468
0.167318
0.137901
0.0953399
0.0477708
0.0184227
0.0174875
0.0198085
0.0226077
0.0586843
0.111559
0.155825
0.185234
0.202994
0.21335
0.219468
0.223187
0.225518
0.227027
0.22801
0.228612
0.228898
0.228895
0.228605
0.228001
0.227012
0.22549
0.22314
0.2194
0.213259
0.202902
0.18519
0.155856
0.111624
0.0586533
0.022567
0.0198216
0.0218933
0.0268081
0.0692421
0.125652
0.169906
0.197416
0.213462
0.222364
0.227195
0.229812
0.231243
0.232042
0.232496
0.232745
0.232855
0.232851
0.232732
0.232475
0.232013
0.231204
0.229761
0.227132
0.222294
0.213408
0.197405
0.169932
0.125694
0.0691847
0.0267603
0.0219094
0.0237067
0.0309285
0.0790958
0.137726
0.181012
0.2061
0.22004
0.227362
0.231028
0.232781
0.233577
0.233917
0.234051
0.234098
0.234109
0.234104
0.234083
0.234028
0.233886
0.233539
0.232735
0.230978
0.227315
0.220009
0.206097
0.181017
0.137736
0.0790206
0.0308803
0.0237227
0.0252613
0.0348099
0.0880164
0.147833
0.188847
0.212123
0.224243
0.230177
0.232877
0.23398
0.234346
0.234405
0.234361
0.234303
0.234266
0.234262
0.23429
0.23434
0.234378
0.234313
0.233943
0.232838
0.230142
0.224222
0.212124
0.188861
0.147822
0.0879397
0.0347673
0.0252761
0.0265573
0.0383015
0.0957954
0.156289
0.195372
0.216548
0.227024
0.231803
0.233749
0.234384
0.23447
0.234368
0.234234
0.234129
0.234072
0.234069
0.234118
0.234217
0.234345
0.234443
0.234353
0.233717
0.231774
0.227006
0.216545
0.195375
0.156265
0.0957275
0.0382672
0.0265703
0.0275943
0.0412699
0.102225
0.163034
0.200456
0.219814
0.22891
0.232771
0.234154
0.234466
0.234377
0.234188
0.234015
0.233896
0.233835
0.233833
0.233887
0.234001
0.234169
0.234354
0.234439
0.234127
0.232746
0.228892
0.219805
0.200448
0.163003
0.102169
0.0412444
0.0276052
0.028372
0.0436018
0.107163
0.1681
0.204164
0.222115
0.230165
0.233353
0.23434
0.234439
0.234247
0.234016
0.233832
0.233713
0.233655
0.233652
0.233706
0.23382
0.234
0.234228
0.234417
0.234317
0.23333
0.230147
0.222101
0.204146
0.168055
0.10712
0.0435843
0.0283809
0.0288905
0.0452076
0.110508
0.171487
0.206581
0.223576
0.230933
0.233684
0.234423
0.234395
0.234147
0.233898
0.233713
0.233599
0.233545
0.233543
0.233593
0.233704
0.233885
0.234131
0.234377
0.234404
0.233665
0.230917
0.223563
0.206563
0.17145
0.110478
0.0451966
0.0288976
0.0291498
0.0460256
0.112194
0.173174
0.207769
0.224284
0.231297
0.233834
0.234454
0.234367
0.234095
0.23384
0.233657
0.233547
0.233495
0.233494
0.233542
0.23365
0.23383
0.234083
0.234352
0.234439
0.233819
0.231284
0.224273
0.207755
0.173147
0.112173
0.0460192
0.0291555
0.0291499
0.0460253
0.112192
0.173169
0.207765
0.224281
0.231295
0.233832
0.234454
0.234366
0.234095
0.23384
0.233657
0.233547
0.233496
0.233495
0.233544
0.233652
0.233833
0.234086
0.234356
0.234442
0.233822
0.231286
0.224274
0.207756
0.17315
0.112178
0.0460214
0.0291546
0.0288909
0.0452066
0.110502
0.171473
0.20657
0.223569
0.230928
0.233681
0.234422
0.234394
0.234147
0.233899
0.233714
0.2336
0.233547
0.233546
0.233598
0.23371
0.233893
0.23414
0.234387
0.234414
0.233674
0.230924
0.223566
0.206565
0.171459
0.110491
0.0452036
0.028895
0.0283727
0.0436008
0.107155
0.16808
0.204149
0.222105
0.230159
0.23335
0.23434
0.23444
0.234249
0.234018
0.233834
0.233716
0.233659
0.233659
0.233714
0.233831
0.234014
0.234244
0.234435
0.234336
0.233347
0.230159
0.222106
0.204149
0.168069
0.107145
0.0435974
0.0283765
0.0275954
0.0412695
0.102218
0.163016
0.200442
0.219805
0.228907
0.232772
0.234158
0.234471
0.234382
0.234193
0.234021
0.233902
0.233843
0.233842
0.2339
0.234018
0.23419
0.234379
0.234467
0.234156
0.232772
0.22891
0.219812
0.200449
0.163016
0.102209
0.0412651
0.0275991
0.0265588
0.0383027
0.0957923
0.156275
0.195361
0.216544
0.227027
0.231811
0.233761
0.234396
0.234482
0.234378
0.234243
0.234139
0.234084
0.234083
0.234137
0.23424
0.234374
0.234478
0.234393
0.233759
0.231812
0.227033
0.216556
0.195376
0.156282
0.0957852
0.0382971
0.0265628
0.025263
0.0348133
0.0880205
0.147825
0.188841
0.212125
0.224255
0.230197
0.2329
0.234002
0.234364
0.234421
0.234375
0.234317
0.234281
0.234281
0.234314
0.234371
0.234416
0.234359
0.233997
0.232896
0.230196
0.224263
0.212142
0.188865
0.147843
0.0880169
0.0348067
0.0252675
0.0237085
0.0309346
0.0791075
0.137725
0.181007
0.206113
0.220068
0.227398
0.231064
0.232813
0.233602
0.233936
0.234066
0.234112
0.234125
0.234124
0.23411
0.234063
0.233931
0.233596
0.232804
0.231055
0.227392
0.220072
0.206132
0.181034
0.137758
0.0791099
0.0309272
0.0237135
0.0218949
0.0268169
0.0692615
0.125663
0.169924
0.197454
0.213514
0.222419
0.227245
0.229852
0.231272
0.232061
0.232509
0.232756
0.232867
0.232867
0.232755
0.232507
0.232058
0.231266
0.229842
0.22723
0.222402
0.213507
0.19747
0.169962
0.125712
0.0692725
0.0268096
0.0219001
0.0198091
0.0226184
0.058711
0.111587
0.155872
0.185309
0.203077
0.213425
0.219527
0.223229
0.225543
0.227038
0.228014
0.228613
0.2289
0.228901
0.228615
0.228018
0.227043
0.225544
0.223223
0.219511
0.213397
0.20305
0.185305
0.155904
0.111642
0.058729
0.022612
0.0198134
0.0174767
0.018466
0.047791
0.0953224
0.137993
0.167506
0.185693
0.197028
0.204488
0.209544
0.213056
0.215577
0.217359
0.218508
0.219072
0.219074
0.218515
0.217373
0.215595
0.213072
0.209551
0.204487
0.197005
0.185649
0.167483
0.137989
0.0953621
0.0478146
0.0184602
0.0174804
0.0149164
0.0145159
0.0369176
0.0762329
0.113434
0.139376
0.156217
0.168014
0.176897
0.183386
0.188283
0.192134
0.194982
0.19686
0.197792
0.197795
0.19687
0.195003
0.192167
0.188319
0.183396
0.176922
0.168026
0.156178
0.1393
0.113371
0.0762394
0.036935
0.0145096
0.014919
0.0121525
0.0108686
0.0260594
0.0526074
0.0782752
0.0964295
0.109937
0.120996
0.130319
0.138064
0.144406
0.149462
0.153248
0.155767
0.157025
0.157025
0.155769
0.153257
0.149486
0.144448
0.138118
0.13038
0.121045
0.109948
0.0963909
0.0782164
0.0525884
0.0260724
0.0108622
0.0121534
0.00922602
0.00715464
0.0144962
0.026099
0.0368587
0.0462744
0.0548959
0.0629599
0.0702835
0.0767332
0.0822494
0.086776
0.0902363
0.0925703
0.0937428
0.0937384
0.0925583
0.0902205
0.086763
0.0822468
0.0767427
0.0702995
0.0629756
0.0549041
0.0462708
0.0368448
0.026096
0.0145059
0.00714689
0.00922531
0.0057515
0.0012875
0.00517047
0.00909176
0.0131918
0.017091
0.020771
0.0241871
0.0272744
0.0300139
0.0323916
0.0343675
0.0358916
0.0369268
0.0374493
0.037447
0.0369203
0.0358815
0.0343552
0.0323796
0.0300044
0.0272654
0.0241778
0.0207613
0.0170817
0.0131843
0.00908796
0.00516846
0.00128615
0.00574985
0.00395065
0.00670417
0.00936048
0.011736
0.014044
0.0161977
0.0181525
0.0198032
0.0212229
0.0224354
0.0234367
0.0242291
0.0248208
0.0252143
0.0254112
0.0254119
0.0252165
0.0248243
0.024234
0.0234425
0.022441
0.0212288
0.0198092
0.0181581
0.0162025
0.0140472
0.0117371
0.00935949
0.00670212
0.00394928
0.00356739
0.00609863
0.00870421
0.0110753
0.0134466
0.0156876
0.0177535
0.0195267
0.0210613
0.0223847
0.0235056
0.0244169
0.0251039
0.0255629
0.0257924
0.0257916
0.0255607
0.0251002
0.0244119
0.0235002
0.0223832
0.0210597
0.0195244
0.0177493
0.0156836
0.0134437
0.0110748
0.00870616
0.00610227
0.00356967
0.00513036
0.00161613
0.00748143
0.0110514
0.0146333
0.0176293
0.0201877
0.022587
0.0246823
0.0264742
0.0279538
0.0291278
0.030008
0.0305966
0.0308919
0.0308927
0.0305991
0.0300124
0.0291336
0.0279579
0.0264733
0.0246853
0.0225985
0.0202211
0.0176588
0.014649
0.0110602
0.00748128
0.00162456
0.00513309
0.00869646
0.0102869
0.0132715
0.0167056
0.0218532
0.0272593
0.0322045
0.0365417
0.0405324
0.04413
0.0472119
0.0497081
0.0515991
0.0528739
0.0535219
0.0535371
0.0529189
0.0516701
0.0497943
0.0472967
0.0442058
0.0406027
0.0366
0.0322369
0.0272536
0.0218409
0.0166889
0.0132344
0.0103003
0.00869651
0.011576
0.0134828
0.0179284
0.0256908
0.0359316
0.0465155
0.0559165
0.0640912
0.0713777
0.0780287
0.0837375
0.0883397
0.0917872
0.0940864
0.0952494
0.0952818
0.0941792
0.0919256
0.0884957
0.0838831
0.078149
0.0714602
0.064103
0.0558358
0.0463775
0.035777
0.0256394
0.0178773
0.0134993
0.0115729
0.0144248
0.0159339
0.0227246
0.0358595
0.0542973
0.0734634
0.089576
0.102229
0.11253
0.121409
0.12877
0.134436
0.138471
0.141068
0.142354
0.142377
0.14113
0.138551
0.134495
0.128822
0.121504
0.112547
0.102179
0.0894425
0.073296
0.0541347
0.0357487
0.0227048
0.0159595
0.0144199
0.0171365
0.0181291
0.0284926
0.046919
0.0730814
0.0995274
0.121717
0.137917
0.14959
0.158492
0.165396
0.170593
0.174269
0.176613
0.177762
0.177777
0.176655
0.174323
0.170643
0.165443
0.158532
0.14959
0.137895
0.121704
0.0994615
0.0729684
0.0468633
0.0284812
0.0181604
0.0171323
0.0196468
0.020536
0.0337978
0.0581255
0.0906451
0.122068
0.146621
0.164046
0.176106
0.184589
0.190686
0.195052
0.198058
0.199942
0.200855
0.200867
0.199975
0.198101
0.195096
0.190725
0.184615
0.176114
0.164049
0.146628
0.122067
0.0906211
0.0581545
0.0338448
0.0205453
0.0196439
0.0219495
0.0230219
0.0389058
0.0688075
0.105923
0.13964
0.164697
0.182101
0.193785
0.20158
0.206823
0.210357
0.212682
0.214097
0.21477
0.214778
0.21412
0.212714
0.210389
0.206849
0.201595
0.19379
0.182105
0.164705
0.139648
0.105951
0.0688926
0.0389646
0.0230293
0.0219431
0.02405
0.0253387
0.043813
0.0788072
0.119031
0.15319
0.177782
0.194416
0.205262
0.2122
0.216609
0.2194
0.221134
0.222144
0.222612
0.222617
0.222159
0.221155
0.219419
0.216623
0.212208
0.205267
0.194423
0.177797
0.153217
0.119095
0.0789246
0.0438717
0.0253442
0.0240444
0.0258914
0.0274238
0.0482789
0.0875324
0.130224
0.163807
0.187341
0.202844
0.212653
0.218684
0.22232
0.224479
0.225734
0.226423
0.226729
0.226732
0.226431
0.225745
0.224489
0.222328
0.21869
0.212661
0.202859
0.187366
0.163848
0.130292
0.0876487
0.0483241
0.0274264
0.025887
0.0274521
0.0292415
0.0521752
0.0947373
0.138633
0.171824
0.194279
0.208623
0.217403
0.222587
0.22555
0.227194
0.228077
0.228524
0.228711
0.228712
0.228528
0.228082
0.227199
0.225555
0.222593
0.217414
0.208642
0.194308
0.171864
0.138693
0.0948342
0.0522032
0.0292423
0.0274488
0.0287171
0.0307555
0.0554346
0.100512
0.145031
0.177735
0.199229
0.212552
0.220439
0.224907
0.227326
0.228572
0.22918
0.229455
0.229558
0.229559
0.229456
0.229182
0.228575
0.227329
0.224913
0.22045
0.212569
0.199252
0.177765
0.145073
0.100579
0.0554478
0.0307557
0.0287147
0.0296748
0.031929
0.0579683
0.104908
0.149728
0.181939
0.202638
0.21515
0.222339
0.226259
0.228273
0.229234
0.229651
0.22981
0.229858
0.229858
0.22981
0.229652
0.229235
0.228275
0.226264
0.222347
0.215162
0.202652
0.181953
0.149743
0.104933
0.0579697
0.0319294
0.0296732
0.0303174
0.0327313
0.0597029
0.107887
0.152836
0.184656
0.204786
0.216736
0.223449
0.227003
0.228751
0.22953
0.229828
0.229916
0.229932
0.229932
0.229916
0.229828
0.22953
0.228752
0.227005
0.223454
0.216742
0.204791
0.184658
0.152838
0.107897
0.0596996
0.0327324
0.0303161
0.0306396
0.0331409
0.0605876
0.109391
0.154389
0.185995
0.205829
0.217491
0.223964
0.227335
0.228952
0.229641
0.229883
0.229938
0.229939
0.229939
0.229938
0.229882
0.22964
0.228951
0.227335
0.223965
0.217492
0.205828
0.185992
0.154386
0.109397
0.0605843
0.0331436
0.0306385
0.030639
0.0331415
0.060591
0.109404
0.1544
0.186003
0.205835
0.217496
0.223969
0.227339
0.228956
0.229645
0.229887
0.229943
0.229944
0.229943
0.229942
0.229886
0.229643
0.228953
0.227336
0.223966
0.217494
0.205831
0.185998
0.154398
0.10941
0.0605883
0.0331447
0.0306379
0.0303155
0.0327334
0.0597128
0.107928
0.152868
0.184677
0.204802
0.21675
0.223462
0.227015
0.228763
0.229541
0.22984
0.229929
0.229945
0.229945
0.229928
0.229838
0.229538
0.228758
0.227009
0.223456
0.216744
0.204797
0.184674
0.152869
0.107938
0.0597121
0.0327374
0.0303143
0.0296716
0.0319325
0.0579835
0.104976
0.149777
0.18197
0.20266
0.215169
0.222357
0.226277
0.228291
0.229253
0.229671
0.229831
0.22988
0.229879
0.229829
0.229667
0.229247
0.228283
0.226267
0.222346
0.215159
0.202652
0.181967
0.149783
0.104993
0.0579855
0.0319372
0.02967
0.0287124
0.0307598
0.055452
0.100606
0.145091
0.177768
0.199252
0.212573
0.22046
0.224929
0.227349
0.228597
0.229207
0.229484
0.229588
0.229587
0.229481
0.229202
0.228588
0.227336
0.224913
0.220443
0.212556
0.199239
0.177764
0.145103
0.100639
0.0554565
0.0307648
0.0287102
0.027446
0.0292461
0.0521882
0.0948454
0.138694
0.171853
0.194299
0.208643
0.217425
0.222611
0.225576
0.227224
0.228111
0.228561
0.228748
0.228747
0.228557
0.228103
0.227212
0.225559
0.222588
0.217399
0.208616
0.194276
0.171841
0.138705
0.0948872
0.0521926
0.0292504
0.027443
0.0258839
0.0274279
0.0482818
0.0876386
0.130279
0.163829
0.187353
0.20286
0.212674
0.218709
0.222349
0.224514
0.225774
0.226467
0.226773
0.226772
0.226463
0.225766
0.224499
0.222327
0.21868
0.212639
0.202822
0.187318
0.163805
0.130282
0.0876816
0.0482819
0.0274306
0.0258797
0.0240413
0.0253421
0.0438056
0.0788965
0.119094
0.153195
0.177777
0.194421
0.205279
0.212225
0.21664
0.219439
0.221182
0.222197
0.222665
0.222664
0.222195
0.221175
0.219425
0.216617
0.212191
0.205238
0.194373
0.177724
0.15315
0.11909
0.0789282
0.0437988
0.0253428
0.0240358
0.0219404
0.0230239
0.0388864
0.0688459
0.105908
0.139577
0.164645
0.182082
0.193791
0.201601
0.206856
0.210402
0.212738
0.214159
0.214832
0.214833
0.21416
0.212736
0.210391
0.206834
0.201567
0.193746
0.182026
0.164572
0.139491
0.105851
0.0688444
0.03887
0.0230223
0.0219338
0.0196395
0.0205367
0.0337645
0.0580802
0.0905038
0.121867
0.146484
0.163979
0.176088
0.184598
0.190718
0.195104
0.198124
0.200015
0.200928
0.200931
0.200023
0.19813
0.195102
0.190702
0.184566
0.176038
0.16391
0.14638
0.121718
0.0903742
0.0580283
0.0337384
0.0205345
0.019634
0.0171304
0.0181403
0.0284563
0.0468336
0.0728585
0.0992219
0.121444
0.137786
0.149532
0.158482
0.165432
0.170661
0.174348
0.176696
0.177841
0.177847
0.176712
0.174367
0.170672
0.16543
0.158459
0.149472
0.13769
0.121281
0.0990217
0.0726753
0.0467436
0.028414
0.0181532
0.0171231
0.0144214
0.0159554
0.0226951
0.0357873
0.0541395
0.0731764
0.0893045
0.102054
0.112439
0.121389
0.128831
0.13453
0.138556
0.141153
0.142435
0.142445
0.141182
0.138594
0.134564
0.128861
0.121416
0.112402
0.101953
0.0891288
0.0729768
0.0540015
0.0356962
0.0226605
0.0159759
0.0144163
0.0115775
0.0135159
0.017936
0.0256692
0.0358545
0.0464079
0.0558146
0.0640128
0.0713355
0.0780386
0.083788
0.0884097
0.0918597
0.0941538
0.0953062
0.0953235
0.0942032
0.0919334
0.0884929
0.0838633
0.0780912
0.0713496
0.0639857
0.0557477
0.0463194
0.0357659
0.0256537
0.0179201
0.0135434
0.0115764
0.00870223
0.0103318
0.0132864
0.0166976
0.0218372
0.0272357
0.0321679
0.0364997
0.0404945
0.0441058
0.0472025
0.0497096
0.0516073
0.0528858
0.053533
0.0535404
0.0529069
0.0516374
0.0497389
0.0472193
0.0441063
0.0404842
0.0364867
0.0321554
0.0272232
0.0218309
0.0166925
0.0132832
0.0103719
0.0087055
0.00513531
0.00162099
0.00749547
0.0110712
0.0146553
0.0176463
0.020194
0.0225834
0.0246805
0.0264767
0.0279605
0.0291384
0.0300222
0.0306138
0.0309113
0.0309129
0.0306184
0.0300286
0.0291448
0.0279639
0.0264747
0.0246764
0.0225811
0.020204
0.0176594
0.0146679
0.0110833
0.0075047
0.0016275
0.00514017
0.00357119
0.00610552
0.00871063
0.0110794
0.0134471
0.0156843
0.0177472
0.0195198
0.0210535
0.0223763
0.023496
0.0244073
0.0250946
0.0255539
0.0257836
0.025783
0.0255521
0.0250915
0.0244029
0.0234906
0.0223718
0.0210483
0.0195134
0.0177385
0.0156767
0.0134422
0.0110785
0.00871359
0.00611059
0.0035745
0.00336289
0.00571946
0.0082374
0.0105589
0.0128929
0.0150999
0.0171265
0.0188678
0.0203942
0.0217137
0.0228143
0.0236941
0.0243557
0.0247976
0.0250182
0.0250168
0.0247934
0.0243491
0.0236856
0.0228044
0.021701
0.0203819
0.0188572
0.0171202
0.0150966
0.0128926
0.0105611
0.0082411
0.00572388
0.00336559
0.00487264
0.00248733
0.0107347
0.0159507
0.0209393
0.0253751
0.0291931
0.0321724
0.0344663
0.0362017
0.0375215
0.0385173
0.0392385
0.0397108
0.0399473
0.0399534
0.0397295
0.0392708
0.0385649
0.0375858
0.0362822
0.0345557
0.0322632
0.0292702
0.0254441
0.0209912
0.0159798
0.0107513
0.00250476
0.00487709
0.00828787
0.0130617
0.0174389
0.0213207
0.0242725
0.0272135
0.030101
0.0329386
0.0357362
0.0382327
0.0404035
0.0422133
0.0436196
0.044585
0.0450837
0.0451022
0.0446388
0.0437037
0.0423195
0.0405215
0.0383494
0.0358352
0.0330135
0.0301553
0.0272132
0.0242093
0.021242
0.0174168
0.013085
0.00829131
0.0110653
0.0181203
0.0233986
0.0252459
0.0291068
0.0350775
0.0416583
0.0477926
0.0531499
0.0575398
0.061297
0.0644244
0.0668736
0.0685625
0.0694334
0.0694567
0.0686289
0.0669723
0.064542
0.0614144
0.0576367
0.053179
0.0477786
0.0416096
0.0350081
0.0289804
0.025103
0.0233887
0.0181654
0.0110664
0.0138043
0.022035
0.0264169
0.0298244
0.0388146
0.0512901
0.0625914
0.0721096
0.0799104
0.0864093
0.0918018
0.0961927
0.0998221
0.102384
0.103704
0.103723
0.102435
0.0998957
0.0963095
0.0918922
0.0864693
0.0799092
0.0720654
0.0625651
0.0513202
0.0387558
0.0297353
0.0264387
0.0220889
0.0138006
0.0164306
0.0254597
0.0285183
0.0360769
0.0514407
0.0694432
0.0866872
0.101276
0.113128
0.122375
0.129567
0.135099
0.139237
0.141962
0.143319
0.143325
0.14198
0.139267
0.135124
0.129567
0.122351
0.113081
0.101228
0.0866099
0.0693636
0.0513474
0.0360182
0.0286003
0.0255146
0.0164221
0.0189043
0.0281053
0.0308474
0.0436727
0.0635599
0.0869956
0.110005
0.128627
0.142415
0.152622
0.160182
0.16572
0.169645
0.172168
0.173405
0.173407
0.172172
0.169646
0.165714
0.160168
0.152611
0.142421
0.128638
0.109963
0.0868873
0.0634756
0.0436634
0.0309525
0.0281683
0.018892
0.0211793
0.0302196
0.0340575
0.0508188
0.0748178
0.103403
0.129682
0.149683
0.164215
0.174603
0.181988
0.187178
0.190712
0.19292
0.193985
0.193987
0.192925
0.190718
0.187182
0.181994
0.174619
0.164242
0.149705
0.129661
0.103333
0.0747877
0.0508546
0.0341528
0.0302649
0.0211676
0.0232117
0.0319187
0.0374711
0.0570739
0.0846991
0.117574
0.145033
0.165343
0.17978
0.189847
0.196783
0.201488
0.204581
0.206457
0.207345
0.207348
0.206465
0.204591
0.2015
0.196798
0.189867
0.179801
0.165352
0.145013
0.117553
0.0847377
0.0571338
0.0375635
0.0319457
0.0231997
0.0250002
0.0333142
0.0408478
0.0630758
0.0947042
0.129499
0.15694
0.176843
0.190732
0.200208
0.206559
0.210732
0.213385
0.214946
0.215671
0.215674
0.214955
0.213397
0.210746
0.206575
0.200224
0.190744
0.176842
0.156923
0.129488
0.0947485
0.0631429
0.0409297
0.0333265
0.0249887
0.0265256
0.0344586
0.0439308
0.0684302
0.10338
0.138796
0.165921
0.185167
0.198342
0.207137
0.212878
0.216534
0.218782
0.220065
0.220647
0.220649
0.220073
0.218794
0.216548
0.212892
0.20715
0.198351
0.185168
0.165917
0.138808
0.103446
0.0684893
0.0439964
0.0344614
0.0265153
0.0277699
0.0353799
0.0464415
0.0728458
0.110321
0.145868
0.172506
0.191063
0.203532
0.21168
0.216864
0.220066
0.221969
0.22302
0.223485
0.223488
0.223027
0.221979
0.220078
0.216877
0.211693
0.203543
0.191071
0.172515
0.145897
0.11039
0.0728887
0.0464863
0.035377
0.0277614
0.0287178
0.0360881
0.0483954
0.0761803
0.115461
0.150964
0.177121
0.195076
0.206948
0.21456
0.21929
0.222132
0.223767
0.224641
0.225018
0.22502
0.224646
0.223775
0.222142
0.219302
0.214572
0.20696
0.195088
0.177137
0.150998
0.115525
0.0762219
0.0484238
0.0360835
0.0287113
0.0293571
0.0365772
0.0497441
0.0784025
0.118842
0.154265
0.180055
0.197571
0.209016
0.216248
0.220661
0.223254
0.224707
0.225462
0.22578
0.225781
0.225466
0.224713
0.223262
0.22067
0.216257
0.209025
0.19758
0.180068
0.15429
0.118887
0.0784251
0.0497606
0.0365748
0.0293527
0.02968
0.0368685
0.0504363
0.0795154
0.120513
0.155884
0.181479
0.198765
0.209989
0.217024
0.221276
0.223742
0.225103
0.225798
0.226086
0.226087
0.2258
0.225106
0.223746
0.22128
0.217028
0.209991
0.198767
0.181482
0.155893
0.120533
0.0795212
0.0504451
0.036872
0.0296775
0.0296807
0.0368672
0.0504342
0.0795
0.120497
0.155875
0.181474
0.198762
0.209985
0.217021
0.221272
0.223738
0.225098
0.225793
0.226081
0.226081
0.225793
0.225099
0.223738
0.221271
0.217018
0.20998
0.198753
0.181463
0.155864
0.120491
0.0794921
0.0504375
0.0368679
0.02968
0.0293594
0.0365719
0.049737
0.078354
0.118793
0.154239
0.18004
0.197559
0.209005
0.216236
0.22065
0.223241
0.224693
0.225446
0.225762
0.225762
0.225445
0.224691
0.223239
0.220645
0.216229
0.208994
0.197543
0.180016
0.154209
0.118762
0.0783338
0.0497375
0.0365792
0.0293604
0.0287217
0.0360785
0.0483817
0.0760936
0.115379
0.150923
0.177099
0.195058
0.206931
0.214541
0.21927
0.222109
0.223742
0.224613
0.224987
0.224987
0.224612
0.22374
0.222107
0.219265
0.214533
0.206918
0.195038
0.177067
0.150877
0.115321
0.0760596
0.0483804
0.0360903
0.0287245
0.0277756
0.0353651
0.0464208
0.0727146
0.110208
0.145816
0.172479
0.191039
0.203507
0.211652
0.216833
0.220033
0.221932
0.222979
0.22344
0.22344
0.222979
0.221932
0.220033
0.216833
0.21165
0.203499
0.191022
0.172446
0.145759
0.110123
0.0726583
0.0464187
0.0353806
0.0277802
0.0265329
0.0344383
0.0439267
0.0682712
0.10325
0.138742
0.165891
0.185136
0.198306
0.207097
0.212836
0.216489
0.218731
0.220008
0.220584
0.220584
0.220009
0.218735
0.216495
0.212845
0.207106
0.198311
0.185131
0.165865
0.138684
0.103149
0.0682006
0.0439264
0.0344561
0.0265394
0.0250092
0.0332899
0.0408623
0.062908
0.0945759
0.129447
0.156907
0.176802
0.190682
0.200155
0.206505
0.210674
0.213319
0.21487
0.215586
0.215587
0.214873
0.213325
0.210687
0.206524
0.200179
0.190705
0.176815
0.156899
0.129401
0.0944809
0.062835
0.0408776
0.0333088
0.0250175
0.0232222
0.0318909
0.0374843
0.0569164
0.0845614
0.117524
0.145004
0.165292
0.179715
0.189782
0.196719
0.201418
0.204497
0.206357
0.207233
0.207233
0.206357
0.204502
0.201432
0.196745
0.18982
0.179758
0.165333
0.145034
0.117513
0.0845015
0.0568559
0.0375184
0.0319096
0.0232319
0.0211906
0.0301884
0.034063
0.0507128
0.0747931
0.10345
0.129688
0.149637
0.164147
0.174537
0.181922
0.187098
0.190606
0.192787
0.193833
0.19383
0.192778
0.190598
0.1871
0.181944
0.174581
0.164207
0.149711
0.129775
0.103521
0.0747921
0.0506785
0.0341115
0.0302052
0.021201
0.0189149
0.0280718
0.0308299
0.0436701
0.0636763
0.087216
0.110111
0.128632
0.14238
0.152579
0.16012
0.165621
0.169501
0.171988
0.173197
0.173187
0.171957
0.16946
0.165591
0.160119
0.152618
0.142456
0.128747
0.110304
0.0874025
0.0637431
0.0436775
0.0308767
0.0280838
0.018924
0.0164397
0.0254095
0.0284898
0.0361053
0.0515681
0.0696729
0.086986
0.101395
0.113172
0.122354
0.129475
0.134932
0.139007
0.141708
0.14303
0.143012
0.141653
0.138919
0.134852
0.129426
0.122365
0.113255
0.101553
0.08723
0.0697873
0.0515758
0.0361192
0.0284891
0.0253932
0.0164485
0.0138095
0.0219745
0.026416
0.0299001
0.03876
0.0513241
0.062796
0.0722747
0.0799892
0.0863774
0.0916684
0.0959651
0.0995538
0.102048
0.103307
0.103286
0.101989
0.0994768
0.0959102
0.0916153
0.086364
0.0800252
0.0723565
0.0628961
0.051268
0.0386602
0.0299019
0.0263945
0.0219344
0.0138133
0.011064
0.0180592
0.0234143
0.025352
0.0292153
0.0350468
0.0416422
0.0478101
0.0531423
0.0574621
0.0611678
0.0642551
0.0666703
0.0683261
0.0691637
0.0691546
0.0683003
0.0666322
0.0642127
0.0611272
0.0574363
0.053143
0.0478261
0.0416237
0.0349905
0.0292268
0.0253344
0.0233815
0.0180056
0.0110619
0.00828212
0.0130118
0.0174754
0.0213977
0.0243334
0.0272334
0.0301035
0.0329493
0.0357461
0.0382341
0.0403921
0.0421848
0.0435711
0.0445147
0.0449928
0.0449953
0.0445236
0.0435905
0.0422201
0.0404462
0.0383044
0.0358242
0.0330177
0.0301246
0.0272298
0.0243229
0.0213855
0.0174568
0.0129497
0.00827595
0.00486525
0.00246415
0.0107264
0.0159219
0.0208912
0.0253187
0.0291413
0.0321305
0.0344259
0.0361637
0.0374873
0.0384876
0.0392127
0.0396878
0.0399252
0.0399297
0.0397009
0.0392332
0.0385138
0.0375174
0.0361951
0.0344539
0.0321501
0.0291391
0.0252992
0.0208621
0.0158927
0.0107078
0.00244471
0.00485818
0.00335813
0.0057118
0.00823126
0.0105553
0.0128936
0.0151053
0.0171361
0.0188791
0.0204075
0.0217289
0.022832
0.0237138
0.0243776
0.0248219
0.0250451
0.0250464
0.0248257
0.0243838
0.0237219
0.0228416
0.0217383
0.020417
0.0188883
0.0171458
0.0151121
0.0128966
0.0105543
0.00822705
0.0057057
0.00335411
0.00330916
0.00561745
0.0081087
0.0104341
0.0127602
0.0149589
0.0169801
0.0187158
0.0202272
0.0215314
0.0226233
0.0234997
0.0241589
0.0245993
0.0248198
0.02482
0.0245997
0.0241593
0.0235001
0.0226232
0.0215307
0.0202259
0.0187139
0.0169774
0.0149552
0.0127558
0.0104294
0.00810407
0.00561312
0.00330673
0.00481724
0.00293974
0.0118484
0.0182434
0.0243317
0.0298299
0.0346768
0.0387679
0.0420986
0.0447827
0.0469078
0.0485414
0.0497297
0.0505044
0.0508855
0.0508827
0.0504966
0.0497183
0.0485292
0.0468977
0.0447776
0.0420984
0.0387697
0.0346725
0.0298185
0.0243151
0.0182292
0.0118383
0.00293336
0.00481501
0.00816176
0.0139785
0.0194913
0.0252284
0.0301574
0.0347249
0.0388795
0.0424246
0.0451515
0.04727
0.0488754
0.0500724
0.0509301
0.0514893
0.0517695
0.0517776
0.0515139
0.0509726
0.0501354
0.0489592
0.047367
0.0452444
0.0424909
0.0388983
0.0347204
0.0301469
0.025221
0.0194883
0.0139553
0.00816032
0.0109201
0.0202557
0.0273875
0.0310613
0.0341679
0.0372042
0.0403006
0.0435016
0.0468454
0.0503264
0.0534192
0.0559824
0.057943
0.0592752
0.0599587
0.0599806
0.0593385
0.0580408
0.0561057
0.0535537
0.0504492
0.0469397
0.0435452
0.0402961
0.0371619
0.034132
0.0310379
0.0273744
0.0202408
0.01092
0.0136201
0.0254751
0.0325234
0.0355371
0.0378455
0.0425168
0.050018
0.0579503
0.0650387
0.0710361
0.076203
0.0804131
0.0833981
0.0853435
0.0863026
0.0862898
0.0853105
0.08336
0.0803849
0.0762218
0.0710566
0.0650451
0.0578878
0.0499139
0.0423918
0.0377491
0.0355038
0.0325146
0.0254683
0.0136221
0.0162105
0.0302345
0.0363284
0.0385762
0.0429244
0.0541358
0.0672058
0.0790907
0.0888873
0.0968388
0.103243
0.108258
0.111929
0.114474
0.115777
0.115758
0.114418
0.111829
0.108166
0.103194
0.0968487
0.0889634
0.079201
0.0672452
0.0540336
0.042861
0.0385627
0.0363335
0.030235
0.0162144
0.0186281
0.0343843
0.0392359
0.0413004
0.0513791
0.0681001
0.0852357
0.101785
0.11574
0.126445
0.134488
0.140463
0.144727
0.147497
0.148833
0.148815
0.147451
0.144666
0.140415
0.134483
0.126508
0.115876
0.101966
0.0854164
0.0681365
0.0513515
0.0413082
0.0392591
0.0343902
0.0186336
0.0208443
0.0379161
0.0411833
0.0449723
0.0610523
0.0813316
0.102945
0.123581
0.139422
0.15113
0.159633
0.165736
0.169949
0.172591
0.173854
0.173842
0.172561
0.169913
0.165713
0.159644
0.151189
0.139529
0.123705
0.10303
0.0813276
0.061031
0.0450472
0.0412381
0.0379223
0.0208508
0.0228352
0.0409263
0.0428086
0.0498243
0.0702777
0.0932136
0.118808
0.140805
0.157337
0.169298
0.177804
0.183751
0.187754
0.190213
0.191378
0.191372
0.190198
0.187738
0.183746
0.177821
0.169341
0.157395
0.140846
0.118791
0.0931276
0.0702168
0.0499208
0.0428561
0.0409282
0.0228418
0.0245787
0.0434029
0.044231
0.0546327
0.0777288
0.103531
0.131729
0.154011
0.170477
0.182233
0.190466
0.196113
0.19984
0.202092
0.20315
0.203148
0.202087
0.199835
0.196115
0.190478
0.182252
0.170489
0.15399
0.131646
0.103401
0.0776294
0.0546977
0.0442578
0.0433991
0.0245847
0.0260581
0.0453909
0.0454955
0.0588243
0.0840003
0.112843
0.141699
0.163874
0.179956
0.191296
0.199133
0.204422
0.207853
0.209898
0.210848
0.210847
0.209896
0.207853
0.204424
0.199136
0.191295
0.179939
0.163823
0.141599
0.112695
0.0838678
0.0588305
0.045499
0.0453825
0.0260632
0.0272593
0.0469309
0.0466541
0.0623949
0.0890463
0.120268
0.149197
0.171025
0.186635
0.197514
0.204937
0.209874
0.213027
0.214879
0.215733
0.215732
0.214879
0.213027
0.209874
0.204934
0.197502
0.186606
0.170968
0.149101
0.12013
0.0889174
0.0623876
0.0466446
0.0469192
0.0272632
0.0281708
0.0480539
0.0475969
0.0651992
0.0928382
0.125729
0.154542
0.175979
0.191149
0.201616
0.208678
0.213315
0.216235
0.217928
0.218701
0.218701
0.217929
0.216235
0.213314
0.208673
0.201602
0.191121
0.17593
0.154466
0.125623
0.0927392
0.0651981
0.0475819
0.0480396
0.0281732