/*--------------------------------*- C++ -*----------------------------------*\
| =========                 |                                                 |
| \\      /  F ield         | OpenFOAM: The Open Source CFD Toolbox           |
|  \\    /   O peration     | Version:  2312                                  |
|   \\  /    A nd           | Website:  www.openfoam.com                      |
|    \\/     M anipulation  |                                                 |
\*---------------------------------------------------------------------------*/
FoamFile
{
    version     2.0;
    format      ascii;
    arch        "LSB;label=32;scalar=64";
    class       volScalarField;
    location    "200";
    object      epsilon;
}
// * * * * * * * * * * * * * * * * * * * * * * * * * * * * * * * * * * * * * //

dimensions      [0 2 -3 0 0 0 0];

internalField   nonuniform List<scalar> 
27000
(
0.00152975
0.00022508
0.000110915
7.00221e-05
5.19143e-05
4.16221e-05
3.49208e-05
3.0287e-05
2.69596e-05
2.45244e-05
2.27144e-05
2.13905e-05
2.04684e-05
1.98865e-05
1.96075e-05
1.96138e-05
1.99056e-05
2.05005e-05
2.14358e-05
2.27713e-05
2.45838e-05
2.70283e-05
3.03655e-05
3.50073e-05
4.17125e-05
5.1996e-05
7.00619e-05
0.000110824
0.000224615
0.0015264
0.000151261
3.27279e-05
1.39912e-05
9.34055e-06
7.19842e-06
5.96193e-06
5.12226e-06
4.50922e-06
4.05053e-06
3.70743e-06
3.45048e-06
3.26105e-06
3.12801e-06
3.04356e-06
3.00274e-06
3.00316e-06
3.04478e-06
3.12988e-06
3.26324e-06
3.45225e-06
3.70787e-06
4.05017e-06
4.50783e-06
5.11957e-06
5.95776e-06
7.19157e-06
9.32452e-06
1.39431e-05
3.25884e-05
0.000150969
0.000100314
1.54607e-05
5.16463e-06
2.56198e-06
1.9107e-06
1.62623e-06
1.44829e-06
1.31967e-06
1.22172e-06
1.14659e-06
1.08922e-06
1.04621e-06
1.01547e-06
9.95637e-07
9.85804e-07
9.85532e-07
9.94805e-07
1.01403e-06
1.04407e-06
1.08628e-06
1.14289e-06
1.21758e-06
1.31552e-06
1.44503e-06
1.62524e-06
1.91298e-06
2.56569e-06
5.15187e-06
1.53902e-05
0.000100273
6.6636e-05
1.03511e-05
2.85241e-06
1.38607e-06
9.88695e-07
8.49318e-07
7.78909e-07
7.3258e-07
6.98291e-07
6.7213e-07
6.51932e-07
6.36515e-07
6.25311e-07
6.17954e-07
6.14211e-07
6.13963e-07
6.17214e-07
6.24089e-07
6.34847e-07
6.49922e-07
6.70019e-07
6.96343e-07
7.31273e-07
7.78962e-07
8.51411e-07
9.92845e-07
1.39022e-06
2.84894e-06
1.03248e-05
6.67012e-05
4.91505e-05
7.28992e-06
2.05583e-06
1.03827e-06
7.44738e-07
6.36877e-07
5.89057e-07
5.62441e-07
5.44779e-07
5.33091e-07
5.24548e-07
5.17794e-07
5.12769e-07
5.09403e-07
5.07643e-07
5.07464e-07
5.08878e-07
5.1194e-07
5.1675e-07
5.23478e-07
5.32351e-07
5.44268e-07
5.62534e-07
5.90171e-07
6.39037e-07
7.47419e-07
1.03975e-06
2.0525e-06
7.28204e-06
4.92422e-05
3.85588e-05
5.62807e-06
1.63772e-06
8.77364e-07
6.47783e-07
5.5856e-07
5.19608e-07
5.00244e-07
4.89211e-07
4.82383e-07
4.77819e-07
4.74507e-07
4.7209e-07
4.70461e-07
4.6959e-07
4.69472e-07
4.70124e-07
4.71583e-07
4.73923e-07
4.77304e-07
4.82097e-07
4.89247e-07
5.00761e-07
5.20634e-07
5.59752e-07
6.48761e-07
8.76857e-07
1.63407e-06
5.62615e-06
3.86462e-05
3.15707e-05
4.60367e-06
1.3947e-06
7.83116e-07
5.96168e-07
5.22499e-07
4.89712e-07
4.74147e-07
4.66205e-07
4.61829e-07
4.59212e-07
4.575e-07
4.56321e-07
4.5554e-07
4.55115e-07
4.55045e-07
4.55342e-07
4.5604e-07
4.57208e-07
4.59005e-07
4.618e-07
4.66417e-07
4.74619e-07
4.90333e-07
5.22976e-07
5.96028e-07
7.81533e-07
1.39089e-06
4.60364e-06
3.16458e-05
2.66961e-05
3.91242e-06
1.23418e-06
7.21086e-07
5.62877e-07
5.0201e-07
4.749e-07
4.62311e-07
4.56301e-07
4.53321e-07
4.5175e-07
4.50845e-07
4.50276e-07
4.49913e-07
4.49715e-07
4.49676e-07
4.49807e-07
4.50134e-07
4.50717e-07
4.51692e-07
4.53378e-07
4.56487e-07
4.6258e-07
4.75117e-07
5.01939e-07
5.62226e-07
7.19285e-07
1.23118e-06
3.91465e-06
2.67675e-05
2.31493e-05
3.4173e-06
1.11833e-06
6.76796e-07
5.39904e-07
4.88897e-07
4.66573e-07
4.56483e-07
4.51905e-07
4.49819e-07
4.48845e-07
4.48359e-07
4.48089e-07
4.47927e-07
4.47839e-07
4.47819e-07
4.47874e-07
4.48023e-07
4.48308e-07
4.48838e-07
4.49868e-07
4.51995e-07
4.56553e-07
4.66505e-07
4.88539e-07
5.3911e-07
6.75232e-07
1.11632e-06
3.42036e-06
2.32058e-05
2.05648e-05
3.05622e-06
1.03211e-06
6.44193e-07
5.25747e-07
4.80527e-07
4.6157e-07
4.53378e-07
4.4986e-07
4.48378e-07
4.4776e-07
4.47494e-07
4.47367e-07
4.47297e-07
4.4726e-07
4.4725e-07
4.47271e-07
4.47335e-07
4.47471e-07
4.47756e-07
4.48389e-07
4.49859e-07
4.5331e-07
4.61351e-07
4.80058e-07
5.24932e-07
6.42981e-07
1.03086e-06
3.05921e-06
2.0608e-05
1.86786e-05
2.79249e-06
9.67782e-07
6.19288e-07
5.14141e-07
4.74502e-07
4.58291e-07
4.51565e-07
4.48831e-07
4.47763e-07
4.47363e-07
4.47215e-07
4.47156e-07
4.47127e-07
4.47111e-07
4.47106e-07
4.47113e-07
4.47138e-07
4.47198e-07
4.47347e-07
4.47738e-07
4.48771e-07
4.51429e-07
4.58024e-07
4.7405e-07
5.13468e-07
6.18428e-07
9.67044e-07
2.79508e-06
1.8711e-05
1.73201e-05
2.60235e-06
9.20716e-07
6.00805e-07
5.0534e-07
4.70051e-07
4.56017e-07
4.50416e-07
4.48258e-07
4.47474e-07
4.47211e-07
4.47129e-07
4.47102e-07
4.47091e-07
4.47085e-07
4.47081e-07
4.47082e-07
4.47088e-07
4.4711e-07
4.47184e-07
4.47428e-07
4.48172e-07
4.50263e-07
4.55766e-07
4.69677e-07
5.04841e-07
6.00238e-07
9.20317e-07
2.60448e-06
1.73441e-05
1.63793e-05
2.47053e-06
8.8772e-07
5.87622e-07
4.99065e-07
4.66909e-07
4.54458e-07
4.49669e-07
4.47914e-07
4.47322e-07
4.47145e-07
4.471e-07
4.4709e-07
4.47087e-07
4.47085e-07
4.47082e-07
4.47079e-07
4.47077e-07
4.47079e-07
4.47112e-07
4.47268e-07
4.47826e-07
4.49529e-07
4.54251e-07
4.66627e-07
4.98726e-07
5.87312e-07
8.87536e-07
2.47224e-06
1.6397e-05
1.57863e-05
2.38737e-06
8.66745e-07
5.79106e-07
4.95038e-07
4.64909e-07
4.53481e-07
4.49211e-07
4.47711e-07
4.47237e-07
4.47111e-07
4.47087e-07
4.47086e-07
4.47088e-07
4.47087e-07
4.47085e-07
4.47081e-07
4.47074e-07
4.47067e-07
4.47079e-07
4.47186e-07
4.47633e-07
4.49095e-07
4.5332e-07
4.64704e-07
4.94809e-07
5.78922e-07
8.66672e-07
2.38872e-06
1.57994e-05
1.54994e-05
2.34716e-06
8.56561e-07
5.74954e-07
4.93073e-07
4.63936e-07
4.53008e-07
4.48992e-07
4.47615e-07
4.47197e-07
4.47095e-07
4.47081e-07
4.47085e-07
4.47088e-07
4.47088e-07
4.47086e-07
4.47082e-07
4.47074e-07
4.47063e-07
4.47066e-07
4.47153e-07
4.4755e-07
4.489e-07
4.52886e-07
4.63787e-07
4.92914e-07
5.74838e-07
8.56543e-07
2.34824e-06
1.55096e-05
1.54994e-05
2.34721e-06
8.5657e-07
5.74957e-07
4.93069e-07
4.63931e-07
4.53004e-07
4.48989e-07
4.47613e-07
4.47196e-07
4.47094e-07
4.47081e-07
4.47084e-07
4.47088e-07
4.47088e-07
4.47087e-07
4.47083e-07
4.47075e-07
4.47066e-07
4.47071e-07
4.4716e-07
4.47561e-07
4.48916e-07
4.52908e-07
4.63816e-07
4.92949e-07
5.74874e-07
8.56573e-07
2.34809e-06
1.55076e-05
1.57863e-05
2.38751e-06
8.66771e-07
5.79114e-07
4.95027e-07
4.64896e-07
4.5347e-07
4.49204e-07
4.47706e-07
4.47234e-07
4.47109e-07
4.47086e-07
4.47086e-07
4.47087e-07
4.47088e-07
4.47086e-07
4.47084e-07
4.47079e-07
4.47074e-07
4.47091e-07
4.47206e-07
4.47664e-07
4.49143e-07
4.53388e-07
4.64796e-07
4.94921e-07
5.7904e-07
8.66773e-07
2.38828e-06
1.57934e-05
1.63794e-05
2.47075e-06
8.8776e-07
5.87632e-07
4.99049e-07
4.66891e-07
4.54445e-07
4.4966e-07
4.47909e-07
4.47319e-07
4.47143e-07
4.47099e-07
4.4709e-07
4.47088e-07
4.47087e-07
4.47086e-07
4.47086e-07
4.47086e-07
4.47092e-07
4.47131e-07
4.47299e-07
4.47876e-07
4.49608e-07
4.54368e-07
4.6679e-07
4.98934e-07
5.87541e-07
8.87734e-07
2.47147e-06
1.63862e-05
1.73202e-05
2.60265e-06
9.2076e-07
6.00803e-07
5.05321e-07
4.70035e-07
4.56008e-07
4.50413e-07
4.48259e-07
4.47477e-07
4.47215e-07
4.47132e-07
4.47107e-07
4.47097e-07
4.47092e-07
4.47091e-07
4.47094e-07
4.47104e-07
4.47129e-07
4.4721e-07
4.47468e-07
4.48238e-07
4.50371e-07
4.55934e-07
4.69922e-07
5.05172e-07
6.00642e-07
9.20664e-07
2.60334e-06
1.73277e-05
1.86789e-05
2.79285e-06
9.67828e-07
6.19292e-07
5.14133e-07
4.74502e-07
4.583e-07
4.51579e-07
4.48847e-07
4.47778e-07
4.47376e-07
4.47227e-07
4.47168e-07
4.47141e-07
4.47129e-07
4.47128e-07
4.47138e-07
4.47166e-07
4.47227e-07
4.4738e-07
4.47783e-07
4.48845e-07
4.51556e-07
4.58236e-07
4.74379e-07
5.13941e-07
6.19042e-07
9.67605e-07
2.79351e-06
1.86877e-05
2.05651e-05
3.05662e-06
1.03217e-06
6.44225e-07
5.25778e-07
4.80564e-07
4.61611e-07
4.53419e-07
4.49898e-07
4.48412e-07
4.4779e-07
4.47521e-07
4.47395e-07
4.47329e-07
4.47298e-07
4.47296e-07
4.47323e-07
4.47389e-07
4.47521e-07
4.47802e-07
4.48437e-07
4.49928e-07
4.53434e-07
4.6158e-07
4.8045e-07
5.25547e-07
6.43855e-07
1.03174e-06
3.05719e-06
2.05763e-05
2.31495e-05
3.4177e-06
1.11843e-06
6.76894e-07
5.40016e-07
4.88991e-07
4.66658e-07
4.56561e-07
4.51974e-07
4.4988e-07
4.489e-07
4.48411e-07
4.48144e-07
4.4799e-07
4.47914e-07
4.47908e-07
4.47973e-07
4.48124e-07
4.48401e-07
4.48912e-07
4.49923e-07
4.52046e-07
4.5664e-07
4.66699e-07
4.88933e-07
5.398e-07
6.76391e-07
1.11768e-06
3.41805e-06
2.31642e-05
2.66953e-05
3.91273e-06
1.23435e-06
7.21268e-07
5.63042e-07
5.02151e-07
4.75025e-07
4.62425e-07
4.56406e-07
4.53416e-07
4.5184e-07
4.50935e-07
4.50373e-07
4.50026e-07
4.49851e-07
4.49837e-07
4.4999e-07
4.50325e-07
4.50894e-07
4.51831e-07
4.53462e-07
4.56518e-07
4.62591e-07
4.75191e-07
5.0222e-07
5.62889e-07
7.20671e-07
1.23318e-06
3.91255e-06
2.67147e-05
3.15666e-05
4.60368e-06
1.39493e-06
7.83365e-07
5.96372e-07
5.22653e-07
4.89857e-07
4.74292e-07
4.66348e-07
4.61966e-07
4.59349e-07
4.57644e-07
4.56481e-07
4.55727e-07
4.55341e-07
4.55316e-07
4.55657e-07
4.5638e-07
4.57538e-07
4.59276e-07
4.6197e-07
4.66465e-07
4.74541e-07
4.90197e-07
5.22961e-07
5.96455e-07
7.82864e-07
1.3934e-06
4.60251e-06
3.15872e-05
3.85516e-05
5.62762e-06
1.63787e-06
8.77595e-07
6.47958e-07
5.58663e-07
5.19761e-07
5.00423e-07
4.89399e-07
4.82568e-07
4.78019e-07
4.74727e-07
4.72337e-07
4.70753e-07
4.69944e-07
4.69902e-07
4.70632e-07
4.72152e-07
4.74506e-07
4.77816e-07
4.82452e-07
4.89423e-07
5.00674e-07
5.20265e-07
5.59273e-07
6.48558e-07
8.77587e-07
1.63638e-06
5.62565e-06
3.85766e-05
4.91387e-05
7.28879e-06
2.05568e-06
1.03832e-06
7.44839e-07
6.37027e-07
5.89264e-07
5.62653e-07
5.45011e-07
5.3331e-07
5.2484e-07
5.18123e-07
5.13139e-07
5.09839e-07
5.08173e-07
5.08111e-07
5.09654e-07
5.12836e-07
5.17725e-07
5.2441e-07
5.32995e-07
5.44775e-07
5.62684e-07
5.89798e-07
6.38117e-07
7.46285e-07
1.03935e-06
2.05462e-06
7.28499e-06
4.91651e-05
6.66187e-05
1.03492e-05
2.85119e-06
1.38566e-06
9.88705e-07
8.49559e-07
7.79277e-07
7.32998e-07
6.98716e-07
6.72552e-07
6.52379e-07
6.36995e-07
6.25851e-07
6.18592e-07
6.14983e-07
6.14901e-07
6.18342e-07
6.25418e-07
6.36364e-07
6.51564e-07
6.71634e-07
6.97812e-07
7.32354e-07
7.79291e-07
8.50642e-07
9.90962e-07
1.38822e-06
2.8508e-06
1.03395e-05
6.6633e-05
0.000100298
1.5459e-05
5.16158e-06
2.56089e-06
1.9106e-06
1.62654e-06
1.4488e-06
1.32025e-06
1.22231e-06
1.14717e-06
1.08983e-06
1.04686e-06
1.01621e-06
9.96494e-07
9.86817e-07
9.86733e-07
9.96229e-07
1.01572e-06
1.04606e-06
1.08863e-06
1.14554e-06
1.22035e-06
1.31822e-06
1.44722e-06
1.62623e-06
1.91233e-06
2.56418e-06
5.15879e-06
1.54312e-05
0.000100273
0.000151248
3.27354e-05
1.39914e-05
9.33959e-06
7.19759e-06
5.9613e-06
5.12193e-06
4.50911e-06
4.05058e-06
3.70756e-06
3.45057e-06
3.26103e-06
3.12782e-06
3.04316e-06
3.00208e-06
3.00221e-06
3.04353e-06
3.12838e-06
3.26162e-06
3.45089e-06
3.70719e-06
4.04973e-06
4.50784e-06
5.12043e-06
5.95996e-06
7.1965e-06
9.33699e-06
1.39768e-05
3.26805e-05
0.0001511
0.00152943
0.000225029
0.000110884
6.99981e-05
5.18954e-05
4.16069e-05
3.49079e-05
3.02755e-05
2.69487e-05
2.45133e-05
2.27023e-05
2.13766e-05
2.0452e-05
1.9867e-05
1.95841e-05
1.9586e-05
1.98727e-05
2.04618e-05
2.13909e-05
2.2721e-05
2.45334e-05
2.69734e-05
3.03056e-05
3.49434e-05
4.16465e-05
5.19339e-05
7.00203e-05
0.000110849
0.000224819
0.00152779
0.00112322
0.000169003
8.90507e-05
5.88302e-05
4.55936e-05
3.78558e-05
3.27138e-05
2.90716e-05
2.63783e-05
2.43838e-05
2.29458e-05
2.19157e-05
2.11931e-05
2.07315e-05
2.05051e-05
2.0502e-05
2.0722e-05
2.1177e-05
2.18928e-05
2.29182e-05
2.43694e-05
2.63615e-05
2.90479e-05
3.26694e-05
3.78058e-05
4.55485e-05
5.88219e-05
8.9152e-05
0.00016946
0.00112659
0.000107029
3.07822e-05
2.03517e-05
1.43228e-05
1.14916e-05
9.6451e-06
8.28502e-06
7.28437e-06
6.51617e-06
5.92937e-06
5.49491e-06
5.18358e-06
4.96912e-06
4.83437e-06
4.76952e-06
4.7701e-06
4.83615e-06
4.97231e-06
5.18879e-06
5.5034e-06
5.94217e-06
6.53123e-06
7.30132e-06
8.30515e-06
9.66425e-06
1.15051e-05
1.43425e-05
2.03895e-05
3.09673e-05
0.000107328
8.38955e-05
2.22859e-05
1.13985e-05
5.84566e-06
3.74887e-06
2.88813e-06
2.41257e-06
2.09066e-06
1.85648e-06
1.68305e-06
1.55652e-06
1.46689e-06
1.40609e-06
1.36852e-06
1.35082e-06
1.35148e-06
1.37051e-06
1.40951e-06
1.47188e-06
1.56325e-06
1.69141e-06
1.86594e-06
2.10033e-06
2.42001e-06
2.88739e-06
3.73394e-06
5.81756e-06
1.13846e-05
2.23533e-05
8.39311e-05
5.75955e-05
1.6237e-05
6.5675e-06
2.84672e-06
1.58651e-06
1.16201e-06
9.82441e-07
8.79677e-07
8.0853e-07
7.56041e-07
7.17205e-07
6.89195e-07
6.69947e-07
6.57956e-07
6.52296e-07
6.52537e-07
6.58683e-07
6.71168e-07
6.9091e-07
7.19331e-07
7.58352e-07
8.10726e-07
8.80978e-07
9.81301e-07
1.1559e-06
1.57274e-06
2.82281e-06
6.54946e-06
1.62688e-05
5.75421e-05
4.44879e-05
1.15663e-05
4.1238e-06
1.70564e-06
9.66782e-07
7.09589e-07
6.06612e-07
5.55963e-07
5.24246e-07
5.00693e-07
4.83265e-07
4.71073e-07
4.63039e-07
4.5815e-07
4.55872e-07
4.56e-07
4.58533e-07
4.63674e-07
4.71975e-07
4.84205e-07
5.01242e-07
5.24527e-07
5.55421e-07
6.04674e-07
7.05417e-07
9.5982e-07
1.6977e-06
4.12414e-06
1.15852e-05
4.44239e-05
3.63906e-05
8.7457e-06
2.83856e-06
1.21168e-06
7.28446e-07
5.52583e-07
4.75161e-07
4.39131e-07
4.20236e-07
4.08264e-07
3.99897e-07
3.94037e-07
3.90126e-07
3.87742e-07
3.86634e-07
3.86694e-07
3.87918e-07
3.90401e-07
3.94365e-07
4.00155e-07
4.08311e-07
4.19971e-07
4.38313e-07
4.73512e-07
5.50269e-07
7.26086e-07
1.21116e-06
2.84726e-06
8.76535e-06
3.63494e-05
3.08378e-05
6.98293e-06
2.13483e-06
9.5657e-07
6.11868e-07
4.78258e-07
4.19621e-07
3.91746e-07
3.77539e-07
3.69575e-07
3.6464e-07
3.61417e-07
3.59329e-07
3.58076e-07
3.57496e-07
3.5752e-07
3.58142e-07
3.59422e-07
3.61502e-07
3.6466e-07
3.69464e-07
3.77234e-07
3.91175e-07
4.18785e-07
4.77377e-07
6.11733e-07
9.58816e-07
2.14513e-06
6.99714e-06
3.08114e-05
2.69394e-05
5.8472e-06
1.73141e-06
8.12206e-07
5.45224e-07
4.39328e-07
3.92398e-07
3.69574e-07
3.5801e-07
3.51915e-07
3.4852e-07
3.46526e-07
3.4533e-07
3.44645e-07
3.44333e-07
3.4434e-07
3.4466e-07
3.45346e-07
3.46525e-07
3.48476e-07
3.51803e-07
3.57811e-07
3.69295e-07
3.92121e-07
4.39298e-07
5.4595e-07
8.14688e-07
1.73932e-06
5.85532e-06
2.69009e-05
2.4198e-05
5.0857e-06
1.48623e-06
7.24904e-07
5.03676e-07
4.16532e-07
3.77361e-07
3.58181e-07
3.48495e-07
3.43546e-07
3.40978e-07
3.39612e-07
3.38871e-07
3.38479e-07
3.38307e-07
3.38306e-07
3.38476e-07
3.38862e-07
3.3959e-07
3.40934e-07
3.43474e-07
3.48401e-07
3.58095e-07
3.77368e-07
4.1681e-07
5.04517e-07
7.26839e-07
1.49165e-06
5.09049e-06
2.41693e-05
2.21628e-05
4.5551e-06
1.32758e-06
6.68282e-07
4.75042e-07
4.01615e-07
3.68211e-07
3.51835e-07
3.43615e-07
3.39495e-07
3.37447e-07
3.36434e-07
3.35932e-07
3.35689e-07
3.35588e-07
3.35586e-07
3.35682e-07
3.35919e-07
3.36414e-07
3.37419e-07
3.39461e-07
3.43586e-07
3.51842e-07
3.6832e-07
4.01942e-07
4.75773e-07
6.6964e-07
1.33128e-06
4.55856e-06
2.21426e-05
2.06451e-05
4.17806e-06
1.22043e-06
6.30095e-07
4.57179e-07
3.91759e-07
3.62326e-07
3.48049e-07
3.40972e-07
3.37484e-07
3.35796e-07
3.34997e-07
3.34624e-07
3.34456e-07
3.3439e-07
3.34388e-07
3.3445e-07
3.34614e-07
3.34983e-07
3.35781e-07
3.37471e-07
3.40972e-07
3.48088e-07
3.62448e-07
3.92038e-07
4.57725e-07
6.31018e-07
1.223e-06
4.18083e-06
2.06312e-05
1.95312e-05
3.91104e-06
1.14678e-06
6.03659e-07
4.45021e-07
3.85096e-07
3.58422e-07
3.45674e-07
3.39456e-07
3.36444e-07
3.35014e-07
3.34352e-07
3.34052e-07
3.3392e-07
3.3387e-07
3.33869e-07
3.33916e-07
3.34045e-07
3.34343e-07
3.35006e-07
3.36441e-07
3.39467e-07
3.45717e-07
3.58527e-07
3.85312e-07
4.45417e-07
6.04297e-07
1.14857e-06
3.91326e-06
1.95218e-05
1.87478e-05
3.728e-06
1.09724e-06
5.85533e-07
4.36713e-07
3.80593e-07
3.55833e-07
3.44159e-07
3.38554e-07
3.35882e-07
3.34632e-07
3.34059e-07
3.33801e-07
3.33688e-07
3.33645e-07
3.33644e-07
3.33685e-07
3.33797e-07
3.34054e-07
3.34628e-07
3.35884e-07
3.38568e-07
3.44198e-07
3.55919e-07
3.8076e-07
4.37016e-07
5.86062e-07
1.09852e-06
3.72977e-06
1.87414e-05
1.82482e-05
3.61322e-06
1.06655e-06
5.74108e-07
4.31472e-07
3.77773e-07
3.54234e-07
3.43248e-07
3.38037e-07
3.35582e-07
3.34445e-07
3.33926e-07
3.33692e-07
3.33588e-07
3.33548e-07
3.33548e-07
3.33586e-07
3.3369e-07
3.33924e-07
3.34445e-07
3.35586e-07
3.38051e-07
3.43283e-07
3.54305e-07
3.77904e-07
4.31702e-07
5.74491e-07
1.06747e-06
3.61462e-06
1.82436e-05
1.80044e-05
3.55763e-06
1.05182e-06
5.68617e-07
4.28955e-07
3.76428e-07
3.53481e-07
3.42826e-07
3.37804e-07
3.35453e-07
3.3437e-07
3.33876e-07
3.33653e-07
3.33553e-07
3.33514e-07
3.33514e-07
3.33552e-07
3.33652e-07
3.33876e-07
3.34372e-07
3.35461e-07
3.37821e-07
3.4286e-07
3.53544e-07
3.76537e-07
4.29134e-07
5.689e-07
1.05249e-06
3.55871e-06
1.80009e-05
1.80035e-05
3.55735e-06
1.05183e-06
5.6866e-07
4.29011e-07
3.76476e-07
3.53515e-07
3.42849e-07
3.37819e-07
3.35463e-07
3.34377e-07
3.33882e-07
3.33658e-07
3.33559e-07
3.3352e-07
3.3352e-07
3.33559e-07
3.33659e-07
3.33884e-07
3.34382e-07
3.35474e-07
3.3784e-07
3.42888e-07
3.5358e-07
3.76579e-07
4.29167e-07
5.68889e-07
1.05235e-06
3.55814e-06
1.80005e-05
1.82454e-05
3.61238e-06
1.06661e-06
5.74246e-07
4.31647e-07
3.77917e-07
3.54338e-07
3.43316e-07
3.38079e-07
3.35609e-07
3.34464e-07
3.33942e-07
3.33709e-07
3.33607e-07
3.33568e-07
3.33569e-07
3.33608e-07
3.33711e-07
3.33946e-07
3.34471e-07
3.35622e-07
3.38105e-07
3.43362e-07
3.54413e-07
3.78031e-07
4.31809e-07
5.74462e-07
1.06705e-06
3.61285e-06
1.82424e-05
1.87427e-05
3.72661e-06
1.09741e-06
5.85797e-07
4.37023e-07
3.80837e-07
3.55999e-07
3.44261e-07
3.38613e-07
3.35917e-07
3.34657e-07
3.34083e-07
3.33829e-07
3.33721e-07
3.33681e-07
3.33682e-07
3.33722e-07
3.33831e-07
3.34086e-07
3.34663e-07
3.3593e-07
3.38641e-07
3.44314e-07
3.56089e-07
3.80977e-07
4.37219e-07
5.8604e-07
1.09785e-06
3.72681e-06
1.87393e-05
1.95233e-05
3.90916e-06
1.14716e-06
6.04072e-07
4.45482e-07
3.85432e-07
3.58629e-07
3.45785e-07
3.39509e-07
3.3647e-07
3.35035e-07
3.3438e-07
3.34091e-07
3.33971e-07
3.33928e-07
3.33929e-07
3.33973e-07
3.34093e-07
3.34381e-07
3.35037e-07
3.36476e-07
3.39529e-07
3.45835e-07
3.5873e-07
3.85606e-07
4.45738e-07
6.04368e-07
1.14773e-06
3.90918e-06
1.95187e-05
2.06335e-05
4.17584e-06
1.22123e-06
6.30715e-07
4.57781e-07
3.92142e-07
3.6252e-07
3.4812e-07
3.40981e-07
3.37477e-07
3.35801e-07
3.35025e-07
3.34678e-07
3.3453e-07
3.34477e-07
3.34478e-07
3.34533e-07
3.34679e-07
3.35021e-07
3.35791e-07
3.37464e-07
3.40975e-07
3.48145e-07
3.62612e-07
3.92345e-07
4.58131e-07
6.31165e-07
1.22215e-06
4.17585e-06
2.06268e-05
2.21465e-05
4.55272e-06
1.32897e-06
6.69121e-07
4.75699e-07
4.01939e-07
3.68298e-07
3.51792e-07
3.4353e-07
3.39425e-07
3.37421e-07
3.36459e-07
3.36004e-07
3.35795e-07
3.35715e-07
3.35718e-07
3.35801e-07
3.36006e-07
3.36451e-07
3.37394e-07
3.39375e-07
3.43467e-07
3.51747e-07
3.68327e-07
4.02124e-07
4.76134e-07
6.69822e-07
1.33059e-06
4.55304e-06
2.21364e-05
2.41761e-05
5.08344e-06
1.48829e-06
7.25872e-07
5.041e-07
4.16623e-07
3.77212e-07
3.57934e-07
3.4826e-07
3.43386e-07
3.40914e-07
3.39639e-07
3.38971e-07
3.38629e-07
3.38486e-07
3.38492e-07
3.38642e-07
3.38982e-07
3.39633e-07
3.4087e-07
3.43288e-07
3.48105e-07
3.57754e-07
3.77086e-07
4.16682e-07
5.0449e-07
7.2689e-07
1.49105e-06
5.08459e-06
2.41606e-05
2.69116e-05
5.84569e-06
1.73417e-06
8.13162e-07
5.45389e-07
4.39053e-07
3.91898e-07
3.69047e-07
3.57591e-07
3.5166e-07
3.48429e-07
3.46569e-07
3.45471e-07
3.44851e-07
3.44575e-07
3.44587e-07
3.44883e-07
3.45508e-07
3.46587e-07
3.4839e-07
3.51523e-07
3.57324e-07
3.68661e-07
3.91485e-07
4.38814e-07
5.45632e-07
8.14467e-07
1.73861e-06
5.84879e-06
2.68887e-05
3.0808e-05
6.98376e-06
2.13853e-06
9.57293e-07
6.11609e-07
4.77585e-07
4.18714e-07
3.90923e-07
3.76955e-07
3.69266e-07
3.6456e-07
3.61502e-07
3.59529e-07
3.58347e-07
3.57801e-07
3.57826e-07
3.58415e-07
3.59623e-07
3.6159e-07
3.64584e-07
3.6915e-07
3.76617e-07
3.90309e-07
4.17886e-07
4.7681e-07
6.11292e-07
9.58451e-07
2.14488e-06
6.99038e-06
3.07838e-05
3.63597e-05
8.75436e-06
2.8444e-06
1.21203e-06
7.275e-07
5.51408e-07
4.74053e-07
4.38118e-07
4.19612e-07
4.08008e-07
3.99887e-07
3.94189e-07
3.90392e-07
3.88067e-07
3.86976e-07
3.87022e-07
3.882e-07
3.90596e-07
3.9443e-07
4.00089e-07
4.08058e-07
4.19377e-07
4.37413e-07
4.72862e-07
5.49751e-07
7.25762e-07
1.21167e-06
2.8516e-06
8.76706e-06
3.63196e-05
4.44662e-05
1.1592e-05
4.13426e-06
1.70566e-06
9.64856e-07
7.07772e-07
6.05334e-07
5.55148e-07
5.23876e-07
5.00662e-07
4.83337e-07
4.71249e-07
4.63327e-07
4.58435e-07
4.56114e-07
4.56191e-07
4.5867e-07
4.63721e-07
4.71786e-07
4.83915e-07
5.01092e-07
5.24126e-07
5.54834e-07
6.0404e-07
7.04929e-07
9.60238e-07
1.70115e-06
4.13958e-06
1.16145e-05
4.44201e-05
5.7624e-05
1.62973e-05
6.59114e-06
2.84758e-06
1.58382e-06
1.15989e-06
9.81325e-07
8.79255e-07
8.08534e-07
7.56247e-07
7.17406e-07
6.89292e-07
6.69895e-07
6.57724e-07
6.51892e-07
6.51993e-07
6.58044e-07
6.70482e-07
6.90207e-07
7.18676e-07
7.57788e-07
8.10124e-07
8.8033e-07
9.8078e-07
1.156e-06
1.5751e-06
2.83479e-06
6.59412e-06
1.63455e-05
5.76062e-05
8.40534e-05
2.23907e-05
1.14392e-05
5.85509e-06
3.7515e-06
2.89034e-06
2.41451e-06
2.09218e-06
1.85756e-06
1.68347e-06
1.55613e-06
1.46566e-06
1.40407e-06
1.36577e-06
1.34745e-06
1.34764e-06
1.36638e-06
1.40529e-06
1.46781e-06
1.55958e-06
1.68845e-06
1.86388e-06
2.09906e-06
2.42001e-06
2.8906e-06
3.74301e-06
5.8422e-06
1.14543e-05
2.2488e-05
8.4142e-05
0.000107306
3.09124e-05
2.04183e-05
1.43676e-05
1.15227e-05
9.66382e-06
8.29285e-06
7.28531e-06
6.51333e-06
5.9238e-06
5.48729e-06
5.17444e-06
4.95879e-06
4.82305e-06
4.75734e-06
4.7572e-06
4.82268e-06
4.95844e-06
5.17465e-06
5.48899e-06
5.9279e-06
6.51925e-06
7.29254e-06
8.30178e-06
9.67404e-06
1.15341e-05
1.43882e-05
2.04645e-05
3.1067e-05
0.00010761
0.00112642
0.000169515
8.92365e-05
5.88965e-05
4.56058e-05
3.78406e-05
3.2687e-05
2.90466e-05
2.63544e-05
2.43616e-05
2.29258e-05
2.18984e-05
2.11784e-05
2.07192e-05
2.04948e-05
2.04934e-05
2.07148e-05
2.11706e-05
2.18865e-05
2.29097e-05
2.43473e-05
2.63349e-05
2.90183e-05
3.26376e-05
3.77828e-05
4.55521e-05
5.88768e-05
8.9322e-05
0.000169934
0.00112957
0.000938784
0.00013908
7.53842e-05
5.095e-05
4.0181e-05
3.37571e-05
2.93737e-05
2.62461e-05
2.39711e-05
2.22747e-05
2.09883e-05
2.00336e-05
1.93618e-05
1.89331e-05
1.87229e-05
1.87197e-05
1.89234e-05
1.93459e-05
2.00118e-05
2.09604e-05
2.22327e-05
2.3924e-05
2.61984e-05
2.93416e-05
3.37346e-05
4.01728e-05
5.09679e-05
7.54588e-05
0.000139334
0.000940597
9.1523e-05
3.29895e-05
2.19231e-05
1.65132e-05
1.39459e-05
1.24246e-05
1.12783e-05
1.02876e-05
9.4178e-06
8.6809e-06
8.08466e-06
7.62577e-06
7.29515e-06
7.08169e-06
6.97647e-06
6.97489e-06
7.07721e-06
7.28848e-06
7.61803e-06
8.07722e-06
8.67552e-06
9.41795e-06
1.02961e-05
1.12971e-05
1.2456e-05
1.399e-05
1.65685e-05
2.19988e-05
3.31928e-05
9.17426e-05
7.25206e-05
2.20309e-05
1.33817e-05
8.5116e-06
6.06826e-06
4.76888e-06
3.97788e-06
3.42971e-06
3.02214e-06
2.7084e-06
2.46982e-06
2.29464e-06
2.17297e-06
2.09674e-06
2.06038e-06
2.06118e-06
2.09923e-06
2.17743e-06
2.3014e-06
2.4792e-06
2.72056e-06
3.03694e-06
3.44605e-06
3.99378e-06
4.78061e-06
6.07673e-06
8.52529e-06
1.34249e-05
2.21127e-05
7.2601e-05
5.02526e-05
1.7666e-05
9.21933e-06
4.96022e-06
2.882e-06
1.91988e-06
1.47276e-06
1.23356e-06
1.08603e-06
9.80951e-07
9.04285e-07
8.49612e-07
8.12366e-07
7.89455e-07
7.78845e-07
7.79541e-07
7.91556e-07
8.15895e-07
8.54517e-07
9.10402e-07
9.87731e-07
1.09242e-06
1.23781e-06
1.47179e-06
1.90982e-06
2.86601e-06
4.95671e-06
9.25154e-06
1.77241e-05
5.02673e-05
3.89704e-05
1.36694e-05
6.51508e-06
3.0557e-06
1.55513e-06
9.68918e-07
7.30912e-07
6.19763e-07
5.58823e-07
5.19174e-07
4.91439e-07
4.71985e-07
4.58122e-07
4.49473e-07
4.45542e-07
4.45943e-07
4.5065e-07
4.59968e-07
4.74132e-07
4.93783e-07
5.21251e-07
5.60001e-07
6.18924e-07
7.26224e-07
9.58171e-07
1.54099e-06
3.0514e-06
6.53847e-06
1.36995e-05
3.89439e-05
3.20835e-05
1.12292e-05
4.64557e-06
1.96114e-06
9.86936e-07
6.34941e-07
4.93595e-07
4.26759e-07
3.89855e-07
3.67641e-07
3.53142e-07
3.43392e-07
3.36913e-07
3.33133e-07
3.31498e-07
3.3172e-07
3.33762e-07
3.37826e-07
3.44437e-07
3.5411e-07
3.68194e-07
3.89542e-07
4.25042e-07
4.9026e-07
6.3004e-07
9.82054e-07
1.96366e-06
4.66403e-06
1.12368e-05
3.20343e-05
2.7484e-05
9.44914e-06
3.43089e-06
1.36716e-06
7.20228e-07
4.92355e-07
3.94703e-07
3.48115e-07
3.24102e-07
3.10275e-07
3.01722e-07
2.96248e-07
2.9278e-07
2.90777e-07
2.8992e-07
2.90038e-07
2.91102e-07
2.9323e-07
2.96703e-07
3.02013e-07
3.10186e-07
3.23409e-07
3.46696e-07
3.92762e-07
4.90551e-07
7.2007e-07
1.37297e-06
3.44464e-06
9.44598e-06
2.74321e-05
2.42044e-05
8.07438e-06
2.67653e-06
1.05424e-06
5.8288e-07
4.16817e-07
3.45479e-07
3.1236e-07
2.9513e-07
2.85465e-07
2.79737e-07
2.76243e-07
2.74126e-07
2.72936e-07
2.7243e-07
2.7249e-07
2.73095e-07
2.7433e-07
2.76409e-07
2.7976e-07
2.85238e-07
2.94587e-07
3.11553e-07
3.44683e-07
4.16633e-07
5.84394e-07
1.06003e-06
2.68578e-06
8.06631e-06
2.41684e-05
2.17578e-05
7.00217e-06
2.19307e-06
8.72813e-07
5.06191e-07
3.73249e-07
3.18962e-07
2.9368e-07
2.80656e-07
2.73512e-07
2.69429e-07
2.67046e-07
2.65663e-07
2.64911e-07
2.64594e-07
2.64622e-07
2.64984e-07
2.65748e-07
2.67095e-07
2.69389e-07
2.73346e-07
2.80377e-07
2.93394e-07
3.18911e-07
3.73835e-07
5.08028e-07
8.77428e-07
2.19873e-06
6.9919e-06
2.1727e-05
1.99546e-05
6.18977e-06
1.87331e-06
7.61054e-07
4.56514e-07
3.47104e-07
3.03518e-07
2.83214e-07
2.72903e-07
2.67395e-07
2.64362e-07
2.62669e-07
2.61729e-07
2.61236e-07
2.61031e-07
2.61045e-07
2.6127e-07
2.61765e-07
2.62685e-07
2.64339e-07
2.67333e-07
2.72843e-07
2.8326e-07
3.03851e-07
3.47992e-07
4.58307e-07
7.64324e-07
1.87636e-06
6.17933e-06
1.9929e-05
1.86263e-05
5.58947e-06
1.65767e-06
6.89807e-07
4.25141e-07
3.31749e-07
2.94417e-07
2.77198e-07
2.68621e-07
2.64174e-07
2.6182e-07
2.60565e-07
2.59901e-07
2.59567e-07
2.59431e-07
2.59438e-07
2.59585e-07
2.59922e-07
2.60581e-07
2.6183e-07
2.64193e-07
2.68692e-07
2.77401e-07
2.94869e-07
3.32596e-07
4.26507e-07
6.91936e-07
1.65908e-06
5.58037e-06
1.86061e-05
1.76629e-05
5.15985e-06
1.51437e-06
6.43353e-07
4.05036e-07
3.2229e-07
2.88984e-07
2.73715e-07
2.66237e-07
2.62463e-07
2.60538e-07
2.59557e-07
2.59062e-07
2.58822e-07
2.58728e-07
2.58732e-07
2.58834e-07
2.59079e-07
2.59579e-07
2.60571e-07
2.62524e-07
2.66361e-07
2.73955e-07
2.89408e-07
3.22962e-07
4.05974e-07
6.44667e-07
1.51494e-06
5.15275e-06
1.76477e-05
1.69923e-05
4.86604e-06
1.42029e-06
6.13559e-07
3.92211e-07
3.16398e-07
2.85723e-07
2.71702e-07
2.64915e-07
2.61559e-07
2.59895e-07
2.59077e-07
2.5868e-07
2.58496e-07
2.58424e-07
2.58427e-07
2.58505e-07
2.58696e-07
2.59101e-07
2.59936e-07
2.6163e-07
2.65041e-07
2.71915e-07
2.86056e-07
3.16876e-07
3.92803e-07
6.14247e-07
1.42045e-06
4.86087e-06
1.69814e-05
1.65685e-05
4.6834e-06
1.3631e-06
5.95767e-07
3.84537e-07
3.1291e-07
2.83845e-07
2.70585e-07
2.6421e-07
2.61097e-07
2.59582e-07
2.58855e-07
2.58511e-07
2.58355e-07
2.58295e-07
2.58297e-07
2.58361e-07
2.58523e-07
2.58875e-07
2.59617e-07
2.61156e-07
2.64309e-07
2.70741e-07
2.84077e-07
3.13222e-07
3.84897e-07
5.96172e-07
1.36316e-06
4.68007e-06
1.65613e-05
1.63645e-05
4.59823e-06
1.33633e-06
5.87387e-07
3.80901e-07
3.11253e-07
2.82963e-07
2.70071e-07
2.63895e-07
2.60897e-07
2.59451e-07
2.58764e-07
2.58443e-07
2.58299e-07
2.58243e-07
2.58244e-07
2.58302e-07
2.5845e-07
2.58776e-07
2.59473e-07
2.60935e-07
2.63956e-07
2.70166e-07
2.831e-07
3.11433e-07
3.81108e-07
5.87642e-07
1.33649e-06
4.59697e-06
1.63606e-05
1.6366e-05
4.59825e-06
1.3362e-06
5.87305e-07
3.80821e-07
3.11189e-07
2.82919e-07
2.70042e-07
2.63877e-07
2.60887e-07
2.59444e-07
2.58758e-07
2.58437e-07
2.58292e-07
2.58235e-07
2.58234e-07
2.58291e-07
2.58437e-07
2.5876e-07
2.5945e-07
2.60899e-07
2.63899e-07
2.70078e-07
2.82971e-07
3.11262e-07
3.80915e-07
5.87459e-07
1.33642e-06
4.5982e-06
1.63646e-05
1.65734e-05
4.68353e-06
1.36271e-06
5.95502e-07
3.8428e-07
3.12709e-07
2.83709e-07
2.705e-07
2.64159e-07
2.61067e-07
2.59562e-07
2.58837e-07
2.58492e-07
2.58331e-07
2.58268e-07
2.58266e-07
2.58326e-07
2.58484e-07
2.58828e-07
2.59552e-07
2.61055e-07
2.64145e-07
2.70481e-07
2.83686e-07
3.12688e-07
3.84284e-07
5.95591e-07
1.36304e-06
4.68505e-06
1.65745e-05
1.70011e-05
4.86629e-06
1.41952e-06
6.13041e-07
3.9173e-07
3.16039e-07
2.85493e-07
2.71568e-07
2.64841e-07
2.61517e-07
2.59867e-07
2.59049e-07
2.58645e-07
2.58452e-07
2.58372e-07
2.58368e-07
2.58442e-07
2.5863e-07
2.5903e-07
2.59844e-07
2.61487e-07
2.64799e-07
2.71505e-07
2.85403e-07
3.15928e-07
3.91647e-07
6.13074e-07
1.41999e-06
4.86943e-06
1.70049e-05
1.76765e-05
5.16007e-06
1.51299e-06
6.42488e-07
4.04263e-07
3.21758e-07
2.88676e-07
2.73557e-07
2.66163e-07
2.62427e-07
2.60509e-07
2.59518e-07
2.59005e-07
2.58746e-07
2.58636e-07
2.58631e-07
2.58732e-07
2.58983e-07
2.59491e-07
2.6048e-07
2.6239e-07
2.6611e-07
2.7347e-07
2.88537e-07
3.21563e-07
4.0409e-07
6.42493e-07
1.51355e-06
5.1647e-06
1.76836e-05
1.86458e-05
5.58927e-06
1.65477e-06
6.88365e-07
4.24017e-07
3.31076e-07
2.94093e-07
2.7708e-07
2.68598e-07
2.64175e-07
2.61805e-07
2.60514e-07
2.59811e-07
2.5944e-07
2.59276e-07
2.59268e-07
2.59418e-07
2.59781e-07
2.60483e-07
2.61777e-07
2.6415e-07
2.68564e-07
2.7701e-07
2.9395e-07
3.30828e-07
4.23745e-07
6.88267e-07
1.65522e-06
5.59494e-06
1.86574e-05
1.99816e-05
6.1889e-06
1.86842e-06
7.58854e-07
4.55108e-07
3.46448e-07
3.03336e-07
2.83261e-07
2.73015e-07
2.67478e-07
2.64374e-07
2.62599e-07
2.61582e-07
2.61025e-07
2.60773e-07
2.60761e-07
2.60995e-07
2.61543e-07
2.62564e-07
2.64359e-07
2.67489e-07
2.73046e-07
2.83279e-07
3.03279e-07
3.46245e-07
4.54784e-07
7.586e-07
1.86827e-06
6.19483e-06
1.9999e-05
2.17942e-05
7.00066e-06
2.18588e-06
8.69781e-07
5.05065e-07
3.72992e-07
3.19203e-07
2.94086e-07
2.81015e-07
2.73723e-07
2.6947e-07
2.66932e-07
2.65421e-07
2.64564e-07
2.64168e-07
2.64152e-07
2.64521e-07
2.65367e-07
2.66893e-07