/*--------------------------------*- C++ -*----------------------------------*\
| =========                 |                                                 |
| \\      /  F ield         | OpenFOAM: The Open Source CFD Toolbox           |
|  \\    /   O peration     | Version:  2312                                  |
|   \\  /    A nd           | Website:  www.openfoam.com                      |
|    \\/     M anipulation  |                                                 |
\*---------------------------------------------------------------------------*/
FoamFile
{
    version     2.0;
    format      ascii;
    arch        "LSB;label=32;scalar=64";
    class       volScalarField;
    location    "200";
    object      k;
}
// * * * * * * * * * * * * * * * * * * * * * * * * * * * * * * * * * * * * * //

dimensions      [0 2 -2 0 0 0 0];

internalField   nonuniform List<scalar> 
27000
(
0.000259153
0.000129496
0.000107413
9.55615e-05
9.00093e-05
8.65531e-05
8.39269e-05
8.16368e-05
7.97352e-05
7.81915e-05
7.69119e-05
7.58894e-05
7.51381e-05
7.46491e-05
7.44145e-05
7.44298e-05
7.46947e-05
7.52129e-05
7.59913e-05
7.7034e-05
7.8312e-05
7.98642e-05
8.17709e-05
8.40587e-05
8.66721e-05
9.00991e-05
9.5596e-05
0.000107357
0.000129327
0.000258795
9.83235e-05
2.16291e-05
2.83458e-05
3.07125e-05
3.24746e-05
3.36377e-05
3.43728e-05
3.48031e-05
3.50294e-05
3.51576e-05
3.52364e-05
3.52852e-05
3.53155e-05
3.53329e-05
3.53402e-05
3.53383e-05
3.5327e-05
3.53049e-05
3.52692e-05
3.52137e-05
3.51278e-05
3.49937e-05
3.47619e-05
3.43281e-05
3.3593e-05
3.24316e-05
3.06688e-05
2.8277e-05
2.15421e-05
9.82033e-05
0.000101411
3.50518e-05
2.88392e-05
2.72534e-05
2.79686e-05
2.891e-05
2.97147e-05
3.03773e-05
3.08829e-05
3.12625e-05
3.15478e-05
3.17584e-05
3.19058e-05
3.19976e-05
3.20385e-05
3.20311e-05
3.19754e-05
3.18696e-05
3.171e-05
3.149e-05
3.11993e-05
3.08195e-05
3.03209e-05
2.96754e-05
2.88985e-05
2.79857e-05
2.7289e-05
2.88336e-05
3.49197e-05
0.000101385
9.48592e-05
3.53447e-05
2.87278e-05
2.84555e-05
2.93154e-05
3.01586e-05
3.08398e-05
3.13786e-05
3.17957e-05
3.21097e-05
3.23434e-05
3.2514e-05
3.26322e-05
3.2705e-05
3.27367e-05
3.27296e-05
3.26843e-05
3.25996e-05
3.24724e-05
3.22972e-05
3.20643e-05
3.1758e-05
3.13567e-05
3.08417e-05
3.0188e-05
2.93669e-05
2.85058e-05
2.87302e-05
3.5264e-05
9.49189e-05
9.02568e-05
3.42786e-05
2.90287e-05
2.96461e-05
3.06273e-05
3.13947e-05
3.19669e-05
3.2396e-05
3.27177e-05
3.29546e-05
3.31267e-05
3.32491e-05
3.33321e-05
3.3382e-05
3.34031e-05
3.33974e-05
3.33658e-05
3.33072e-05
3.3219e-05
3.30958e-05
3.29284e-05
3.27023e-05
3.23972e-05
3.19875e-05
3.14321e-05
3.06705e-05
2.96745e-05
2.90147e-05
3.42282e-05
9.03643e-05
8.65303e-05
3.39717e-05
2.94807e-05
3.04766e-05
3.15069e-05
3.22315e-05
3.27336e-05
3.30858e-05
3.33348e-05
3.35098e-05
3.36312e-05
3.37135e-05
3.37668e-05
3.37976e-05
3.38099e-05
3.38057e-05
3.37859e-05
3.37495e-05
3.36938e-05
3.3613e-05
3.34975e-05
3.33325e-05
3.3096e-05
3.27552e-05
3.22588e-05
3.15286e-05
3.04776e-05
2.94506e-05
3.39361e-05
8.66554e-05
8.33579e-05
3.40062e-05
3.01564e-05
3.11561e-05
3.21279e-05
3.2793e-05
3.32346e-05
3.3526e-05
3.37173e-05
3.38418e-05
3.39216e-05
3.39714e-05
3.4001e-05
3.40166e-05
3.4022e-05
3.40192e-05
3.40088e-05
3.39898e-05
3.39594e-05
3.39118e-05
3.38372e-05
3.37198e-05
3.35355e-05
3.32482e-05
3.28041e-05
3.21272e-05
3.11338e-05
3.01073e-05
3.39756e-05
8.34846e-05
8.05856e-05
3.41377e-05
3.08143e-05
3.17291e-05
3.25979e-05
3.31838e-05
3.35614e-05
3.3797e-05
3.39394e-05
3.40226e-05
3.40692e-05
3.40938e-05
3.41056e-05
3.41102e-05
3.41107e-05
3.41089e-05
3.41052e-05
3.40987e-05
3.40869e-05
3.40642e-05
3.4021e-05
3.39416e-05
3.38015e-05
3.35648e-05
3.31806e-05
3.25815e-05
3.16947e-05
3.07641e-05
3.4117e-05
8.07231e-05
7.80878e-05
3.42688e-05
3.13502e-05
3.21822e-05
3.29527e-05
3.346e-05
3.37745e-05
3.39587e-05
3.40592e-05
3.41092e-05
3.41305e-05
3.41368e-05
3.41363e-05
3.41335e-05
3.4131e-05
3.41298e-05
3.41304e-05
3.41321e-05
3.41326e-05
3.41274e-05
3.41077e-05
3.40589e-05
3.39577e-05
3.37697e-05
3.34475e-05
3.29289e-05
3.21461e-05
3.13071e-05
3.42575e-05
7.82095e-05
7.59747e-05
3.43813e-05
3.17705e-05
3.25291e-05
3.32141e-05
3.36536e-05
3.39123e-05
3.40518e-05
3.41178e-05
3.41421e-05
3.41452e-05
3.41394e-05
3.41313e-05
3.41245e-05
3.41203e-05
3.41196e-05
3.41225e-05
3.41286e-05
3.41365e-05
3.41427e-05
3.41398e-05
3.41149e-05
3.40467e-05
3.39027e-05
3.36372e-05
3.31896e-05
3.24973e-05
3.17373e-05
3.43771e-05
7.60767e-05
7.4241e-05
3.44733e-05
3.20952e-05
3.27936e-05
3.3408e-05
3.3789e-05
3.40005e-05
3.41034e-05
3.41425e-05
3.41481e-05
3.41391e-05
3.4126e-05
3.4114e-05
3.41053e-05
3.41006e-05
3.41001e-05
3.4104e-05
3.41121e-05
3.41237e-05
3.41365e-05
3.41449e-05
3.41379e-05
3.40962e-05
3.39893e-05
3.37726e-05
3.33864e-05
3.27683e-05
3.20716e-05
3.44738e-05
7.43234e-05
7.28725e-05
3.45445e-05
3.23385e-05
3.29902e-05
3.3549e-05
3.38828e-05
3.40566e-05
3.41311e-05
3.41502e-05
3.41431e-05
3.41265e-05
3.41096e-05
3.40961e-05
3.40869e-05
3.40823e-05
3.40819e-05
3.40859e-05
3.40945e-05
3.41075e-05
3.41238e-05
3.41394e-05
3.4145e-05
3.41235e-05
3.40459e-05
3.38686e-05
3.35318e-05
3.29715e-05
3.23227e-05
3.45479e-05
7.29373e-05
7.18574e-05
3.4596e-05
3.25117e-05
3.31292e-05
3.36471e-05
3.39456e-05
3.40915e-05
3.41453e-05
3.41507e-05
3.41353e-05
3.41146e-05
3.4096e-05
3.40822e-05
3.40734e-05
3.40691e-05
3.40689e-05
3.40726e-05
3.40809e-05
3.40941e-05
3.41119e-05
3.41317e-05
3.41456e-05
3.41384e-05
3.40823e-05
3.39343e-05
3.36341e-05
3.31161e-05
3.25018e-05
3.4601e-05
7.19074e-05
7.11862e-05
3.46294e-05
3.26229e-05
3.3218e-05
3.37088e-05
3.39841e-05
3.41115e-05
3.41522e-05
3.4149e-05
3.41288e-05
3.4106e-05
3.40869e-05
3.40734e-05
3.40652e-05
3.40612e-05
3.4061e-05
3.40645e-05
3.40723e-05
3.40852e-05
3.41036e-05
3.41256e-05
3.41446e-05
3.41464e-05
3.41043e-05
3.39756e-05
3.36995e-05
3.32092e-05
3.2617e-05
3.46349e-05
7.12247e-05
7.08524e-05
3.46458e-05
3.2677e-05
3.32611e-05
3.37384e-05
3.40022e-05
3.41206e-05
3.41548e-05
3.41476e-05
3.41253e-05
3.41016e-05
3.40825e-05
3.40693e-05
3.40613e-05
3.40576e-05
3.40575e-05
3.40608e-05
3.40683e-05
3.40811e-05
3.40996e-05
3.41226e-05
3.4144e-05
3.41502e-05
3.41151e-05
3.39959e-05
3.37318e-05
3.32551e-05
3.26737e-05
3.46513e-05
7.08825e-05
7.08526e-05
3.4646e-05
3.26769e-05
3.32607e-05
3.37379e-05
3.40018e-05
3.41203e-05
3.41546e-05
3.41475e-05
3.41252e-05
3.41016e-05
3.40825e-05
3.40693e-05
3.40614e-05
3.40577e-05
3.40575e-05
3.40609e-05
3.40685e-05
3.40814e-05
3.41e-05
3.41231e-05
3.41447e-05
3.4151e-05
3.41161e-05
3.3997e-05
3.37331e-05
3.32565e-05
3.26749e-05
3.4651e-05
7.0877e-05
7.11867e-05
3.463e-05
3.26225e-05
3.32169e-05
3.37075e-05
3.3983e-05
3.41107e-05
3.41516e-05
3.41487e-05
3.41287e-05
3.41059e-05
3.40869e-05
3.40735e-05
3.40653e-05
3.40614e-05
3.40613e-05
3.40649e-05
3.40729e-05
3.40861e-05
3.41047e-05
3.41271e-05
3.41465e-05
3.41489e-05
3.41074e-05
3.39792e-05
3.37035e-05
3.32134e-05
3.26209e-05
3.46344e-05
7.12078e-05
7.18584e-05
3.45972e-05
3.25112e-05
3.31275e-05
3.36453e-05
3.39442e-05
3.40905e-05
3.41448e-05
3.41505e-05
3.41353e-05
3.41147e-05
3.40962e-05
3.40824e-05
3.40737e-05
3.40695e-05
3.40695e-05
3.40735e-05
3.4082e-05
3.40956e-05
3.41138e-05
3.41342e-05
3.41489e-05
3.41426e-05
3.40876e-05
3.39406e-05
3.36414e-05
3.31239e-05
3.25092e-05
3.46008e-05
7.18783e-05
7.28742e-05
3.45463e-05
3.23381e-05
3.29883e-05
3.35472e-05
3.38815e-05
3.4056e-05
3.41311e-05
3.41506e-05
3.41436e-05
3.41271e-05
3.41102e-05
3.40966e-05
3.40876e-05
3.40831e-05
3.40831e-05
3.40874e-05
3.40963e-05
3.41098e-05
3.41266e-05
3.41429e-05
3.41496e-05
3.41295e-05
3.40535e-05
3.3878e-05
3.35429e-05
3.29838e-05
3.2335e-05
3.4549e-05
7.28948e-05
7.42434e-05
3.4476e-05
3.20954e-05
3.27922e-05
3.34068e-05
3.37886e-05
3.4001e-05
3.41046e-05
3.41439e-05
3.41496e-05
3.41405e-05
3.41273e-05
3.41152e-05
3.41066e-05
3.41021e-05
3.4102e-05
3.41063e-05
3.41149e-05
3.4127e-05
3.41404e-05
3.41495e-05
3.41437e-05
3.41038e-05
3.39991e-05
3.37852e-05
3.34019e-05
3.27864e-05
3.20905e-05
3.44775e-05
7.42665e-05
7.59778e-05
3.43853e-05
3.17721e-05
3.2529e-05
3.32145e-05
3.36551e-05
3.39147e-05
3.40548e-05
3.41209e-05
3.4145e-05
3.41477e-05
3.41416e-05
3.41334e-05
3.41267e-05
3.41229e-05
3.41228e-05
3.41263e-05
3.41329e-05
3.41413e-05
3.41478e-05
3.41456e-05
3.41217e-05
3.40553e-05
3.39141e-05
3.36525e-05
3.32093e-05
3.25217e-05
3.17648e-05
3.43852e-05
7.60051e-05
7.80911e-05
3.42743e-05
3.13539e-05
3.21844e-05
3.29557e-05
3.34644e-05
3.37798e-05
3.39642e-05
3.40645e-05
3.41138e-05
3.41344e-05
3.41402e-05
3.41395e-05
3.41369e-05
3.4135e-05
3.41347e-05
3.41361e-05
3.41385e-05
3.41394e-05
3.41344e-05
3.41148e-05
3.40665e-05
3.39667e-05
3.37815e-05
3.34639e-05
3.29515e-05
3.21763e-05
3.13439e-05
3.42719e-05
7.81241e-05
8.05876e-05
3.41447e-05
3.08208e-05
3.17345e-05
3.26044e-05
3.31917e-05
3.35699e-05
3.38054e-05
3.3947e-05
3.40292e-05
3.40747e-05
3.40986e-05
3.41102e-05
3.41152e-05
3.41167e-05
3.41162e-05
3.41138e-05
3.41083e-05
3.40969e-05
3.40739e-05
3.40301e-05
3.39501e-05
3.38102e-05
3.35752e-05
3.31953e-05
3.26036e-05
3.17275e-05
3.08086e-05
3.41392e-05
8.06264e-05
8.33539e-05
3.40144e-05
3.01658e-05
3.11651e-05
3.21382e-05
3.28045e-05
3.32464e-05
3.3537e-05
3.3727e-05
3.385e-05
3.39285e-05
3.39776e-05
3.40072e-05
3.40237e-05
3.40306e-05
3.40298e-05
3.40213e-05
3.40038e-05
3.3974e-05
3.39259e-05
3.38497e-05
3.373e-05
3.35436e-05
3.32556e-05
3.28138e-05
3.21437e-05
3.11628e-05
3.01539e-05
3.40052e-05
8.33899e-05
8.65225e-05
3.39804e-05
2.94911e-05
3.04876e-05
3.15196e-05
3.22455e-05
3.27475e-05
3.30987e-05
3.3346e-05
3.35193e-05
3.36394e-05
3.37211e-05
3.37749e-05
3.38071e-05
3.38217e-05
3.38204e-05
3.38034e-05
3.37693e-05
3.37147e-05
3.36335e-05
3.35159e-05
3.33468e-05
3.31051e-05
3.27595e-05
3.22609e-05
3.15337e-05
3.04938e-05
2.94849e-05
3.3969e-05
8.65598e-05
9.02448e-05
3.4287e-05
2.90384e-05
2.96562e-05
3.06395e-05
3.14088e-05
3.19814e-05
3.24095e-05
3.27296e-05
3.29649e-05
3.31358e-05
3.32581e-05
3.33422e-05
3.33944e-05
3.34187e-05
3.34169e-05
3.33892e-05
3.33341e-05
3.32482e-05
3.31254e-05
3.2956e-05
3.27249e-05
3.24115e-05
3.19919e-05
3.14272e-05
3.06607e-05
2.96721e-05
2.90378e-05
3.42705e-05
9.02771e-05
9.48439e-05
3.53524e-05
2.87325e-05
2.84597e-05
2.93241e-05
3.01704e-05
3.0853e-05
3.13917e-05
3.18078e-05
3.21205e-05
3.23535e-05
3.25246e-05
3.26446e-05
3.27204e-05
3.27562e-05
3.27541e-05
3.2714e-05
3.26343e-05
3.25111e-05
3.2338e-05
3.21048e-05
3.17946e-05
3.13843e-05
3.08548e-05
3.01835e-05
2.93465e-05
2.84808e-05
2.87377e-05
3.53254e-05
9.48577e-05
0.000101399
3.5056e-05
2.88335e-05
2.72512e-05
2.79727e-05
2.89189e-05
2.97272e-05
3.03905e-05
3.08955e-05
3.12741e-05
3.15591e-05
3.17705e-05
3.19199e-05
3.20149e-05
3.20602e-05
3.20581e-05
3.20085e-05
3.19094e-05
3.17559e-05
3.15412e-05
3.12538e-05
3.08743e-05
3.0371e-05
2.97131e-05
2.8915e-05
2.798e-05
2.72672e-05
2.88354e-05
3.50055e-05
0.000101382
9.83139e-05
2.16402e-05
2.83514e-05
3.07161e-05
3.24806e-05
3.36459e-05
3.43815e-05
3.4811e-05
3.5036e-05
3.51629e-05
3.52404e-05
3.52882e-05
3.5318e-05
3.53356e-05
3.53437e-05
3.53434e-05
3.53346e-05
3.53162e-05
3.52852e-05
3.52354e-05
3.51555e-05
3.50266e-05
3.47993e-05
3.43684e-05
3.3633e-05
3.2469e-05
3.07054e-05
2.83311e-05
2.16107e-05
9.82515e-05
0.000259106
0.00012947
0.00010739
9.55394e-05
8.99889e-05
8.65342e-05
8.3909e-05
8.16191e-05
7.97168e-05
7.81711e-05
7.68886e-05
7.58607e-05
7.51024e-05
7.46051e-05
7.43607e-05
7.43653e-05
7.4619e-05
7.51259e-05
7.58937e-05
7.69298e-05
7.82129e-05
7.97644e-05
8.1672e-05
8.39647e-05
8.65881e-05
9.00325e-05
9.5559e-05
0.000107367
0.00012939
0.000258922
0.000211001
0.000107014
9.2803e-05
8.50858e-05
8.25346e-05
8.12313e-05
8.03317e-05
7.94195e-05
7.85678e-05
7.78762e-05
7.74134e-05
7.71083e-05
7.68858e-05
7.6736e-05
7.66576e-05
7.66507e-05
7.67151e-05
7.6851e-05
7.70602e-05
7.7358e-05
7.78505e-05
7.85399e-05
7.93825e-05
8.02674e-05
8.11674e-05
8.24849e-05
8.50776e-05
9.28662e-05
0.000107191
0.000211386
7.81094e-05
2.35107e-05
4.11312e-05
4.19375e-05
4.32255e-05
4.3466e-05
4.31091e-05
4.27566e-05
4.22734e-05
4.17632e-05
4.13123e-05
4.09588e-05
4.0704e-05
4.05401e-05
4.04612e-05
4.04641e-05
4.05492e-05
4.07201e-05
4.09835e-05
4.13472e-05
4.18076e-05
4.23249e-05
4.28173e-05
4.31972e-05
4.35455e-05
4.32741e-05
4.1983e-05
4.1169e-05
2.36427e-05
7.82392e-05
9.00367e-05
5.04703e-05
4.0998e-05
3.29403e-05
3.01708e-05
2.95763e-05
2.93817e-05
2.9135e-05
2.89151e-05
2.87273e-05
2.85747e-05
2.84637e-05
2.83927e-05
2.83547e-05
2.83429e-05
2.83538e-05
2.83874e-05
2.84467e-05
2.85367e-05
2.86621e-05
2.88232e-05
2.90138e-05
2.92256e-05
2.94418e-05
2.95695e-05
3.01021e-05
3.28445e-05
4.09158e-05
5.05796e-05
9.0056e-05
8.60702e-05
4.93198e-05
3.61701e-05
2.85062e-05
2.51674e-05
2.45066e-05
2.4706e-05
2.50288e-05
2.53226e-05
2.56023e-05
2.58321e-05
2.60093e-05
2.61391e-05
2.62265e-05
2.62744e-05
2.62837e-05
2.62539e-05
2.61826e-05
2.60646e-05
2.58929e-05
2.56612e-05
2.53716e-05
2.50496e-05
2.46738e-05
2.44058e-05
2.5004e-05
2.83579e-05
3.60689e-05
4.93984e-05
8.60186e-05
8.44412e-05
4.52519e-05
3.22683e-05
2.6069e-05
2.41508e-05
2.40668e-05
2.45714e-05
2.51298e-05
2.56023e-05
2.5989e-05
2.62953e-05
2.65266e-05
2.66911e-05
2.67977e-05
2.68525e-05
2.68584e-05
2.68147e-05
2.67172e-05
2.65577e-05
2.63262e-05
2.60134e-05
2.56112e-05
2.51113e-05
2.45139e-05
2.39686e-05
2.40277e-05
2.59681e-05
3.22556e-05
4.53253e-05
8.43663e-05
8.32405e-05
4.19724e-05
2.99774e-05
2.51331e-05
2.4321e-05
2.472e-05
2.53498e-05
2.59409e-05
2.64287e-05
2.68135e-05
2.71091e-05
2.73293e-05
2.74847e-05
2.75843e-05
2.76343e-05
2.76376e-05
2.75938e-05
2.74986e-05
2.73446e-05
2.71217e-05
2.68184e-05
2.64204e-05
2.59147e-05
2.53044e-05
2.466e-05
2.42628e-05
2.51129e-05
3.00173e-05
4.20558e-05
8.31831e-05
8.20476e-05
3.99167e-05
2.83142e-05
2.48554e-05
2.48245e-05
2.54689e-05
2.6146e-05
2.67216e-05
2.71798e-05
2.75317e-05
2.77952e-05
2.79871e-05
2.81203e-05
2.82045e-05
2.82459e-05
2.82477e-05
2.82094e-05
2.81271e-05
2.79936e-05
2.77988e-05
2.75295e-05
2.71695e-05
2.67024e-05
2.61206e-05
2.54454e-05
2.48184e-05
2.48908e-05
2.84021e-05
3.99664e-05
8.20065e-05
8.1056e-05
3.86744e-05
2.73581e-05
2.49189e-05
2.53315e-05
2.61083e-05
2.67969e-05
2.73455e-05
2.77643e-05
2.80751e-05
2.83004e-05
2.84593e-05
2.85668e-05
2.86332e-05
2.86652e-05
2.8666e-05
2.86354e-05
2.85696e-05
2.84615e-05
2.83004e-05
2.80717e-05
2.7757e-05
2.73355e-05
2.67881e-05
2.61082e-05
2.53517e-05
2.49724e-05
2.74412e-05
3.87075e-05
8.09862e-05
8.0413e-05
3.78396e-05
2.68982e-05
2.51943e-05
2.58097e-05
2.66267e-05
2.73024e-05
2.78161e-05
2.81923e-05
2.84605e-05
2.8647e-05
2.87732e-05
2.88552e-05
2.89043e-05
2.89273e-05
2.89277e-05
2.89051e-05
2.88561e-05
2.87736e-05
2.86462e-05
2.84582e-05
2.81889e-05
2.78132e-05
2.73038e-05
2.6638e-05
2.58383e-05
2.52467e-05
2.69652e-05
3.78615e-05
8.03559e-05
7.98489e-05
3.72555e-05
2.66862e-05
2.54943e-05
2.62174e-05
2.70365e-05
2.76849e-05
2.81598e-05
2.84938e-05
2.87213e-05
2.88716e-05
2.89678e-05
2.9027e-05
2.90608e-05
2.9076e-05
2.90761e-05
2.9061e-05
2.90272e-05
2.89677e-05
2.88709e-05
2.87203e-05
2.84932e-05
2.81611e-05
2.76909e-05
2.70508e-05
2.62444e-05
2.55371e-05
2.67359e-05
3.72715e-05
7.98057e-05
7.93551e-05
3.68439e-05
2.65992e-05
2.57539e-05
2.65372e-05
2.73483e-05
2.79667e-05
2.8404e-05
2.86993e-05
2.88905e-05
2.90094e-05
2.90802e-05
2.91204e-05
2.91416e-05
2.91507e-05
2.91507e-05
2.91416e-05
2.91203e-05
2.908e-05
2.9009e-05
2.88903e-05
2.87e-05
2.84069e-05
2.79735e-05
2.73612e-05
2.65588e-05
2.57859e-05
2.66343e-05
3.68567e-05
7.93237e-05
7.89429e-05
3.65583e-05
2.65772e-05
2.59647e-05
2.67793e-05
2.75772e-05
2.81678e-05
2.85723e-05
2.88346e-05
2.89959e-05
2.90894e-05
2.91402e-05
2.91658e-05
2.91775e-05
2.91819e-05
2.91819e-05
2.91775e-05
2.91657e-05
2.914e-05
2.90893e-05
2.89961e-05
2.88358e-05
2.85752e-05
2.81736e-05
2.75872e-05
2.67951e-05
2.59871e-05
2.66011e-05
3.65688e-05
7.89206e-05
7.86228e-05
3.63672e-05
2.65843e-05
2.61252e-05
2.69543e-05
2.77378e-05
2.83049e-05
2.86833e-05
2.89201e-05
2.90586e-05
2.91333e-05
2.91696e-05
2.91848e-05
2.91899e-05
2.91911e-05
2.91911e-05
2.91898e-05
2.91847e-05
2.91694e-05
2.91333e-05
2.9059e-05
2.89212e-05
2.86857e-05
2.83093e-05
2.77449e-05
2.69651e-05
2.61401e-05
2.66001e-05
3.6376e-05
7.8607e-05
7.84034e-05
3.625e-05
2.65991e-05
2.62337e-05
2.70688e-05
2.78404e-05
2.83906e-05
2.87507e-05
2.89701e-05
2.90934e-05
2.91557e-05
2.91826e-05
2.91913e-05
2.91923e-05
2.91916e-05
2.91916e-05
2.91923e-05
2.91912e-05
2.91825e-05
2.91557e-05
2.90937e-05
2.8971e-05
2.87525e-05
2.83937e-05
2.78454e-05
2.70761e-05
2.62438e-05
2.66098e-05
3.62576e-05
7.83919e-05
7.82907e-05
3.61944e-05
2.66098e-05
2.62893e-05
2.71264e-05
2.78914e-05
2.84325e-05
2.8783e-05
2.89935e-05
2.9109e-05
2.91651e-05
2.91875e-05
2.9193e-05
2.91922e-05
2.91906e-05
2.91905e-05
2.91921e-05
2.9193e-05
2.91874e-05
2.91652e-05
2.91093e-05
2.89943e-05
2.87845e-05
2.8435e-05
2.78952e-05
2.71318e-05
2.62965e-05
2.66175e-05
3.62013e-05
7.82816e-05
7.8288e-05
3.61933e-05
2.66107e-05
2.62919e-05
2.71292e-05
2.78937e-05
2.84343e-05
2.87843e-05
2.89944e-05
2.91097e-05
2.91657e-05
2.9188e-05
2.91936e-05
2.91927e-05
2.91911e-05
2.91911e-05
2.91927e-05
2.91935e-05
2.91879e-05
2.91658e-05
2.911e-05
2.89952e-05
2.87858e-05
2.84366e-05
2.78972e-05
2.71339e-05
2.62979e-05
2.66167e-05
3.61991e-05
7.828e-05
7.83949e-05
3.62469e-05
2.66021e-05
2.62419e-05
2.70771e-05
2.78474e-05
2.83958e-05
2.87544e-05
2.89727e-05
2.90953e-05
2.91572e-05
2.9184e-05
2.91928e-05
2.9194e-05
2.91933e-05
2.91933e-05
2.91939e-05
2.91927e-05
2.91839e-05
2.91572e-05
2.90955e-05
2.89735e-05
2.8756e-05
2.83985e-05
2.78513e-05
2.70822e-05
2.6248e-05
2.66074e-05
3.62515e-05
7.83868e-05
7.86078e-05
3.63624e-05
2.65898e-05
2.61395e-05
2.69683e-05
2.7749e-05
2.83131e-05
2.86888e-05
2.89238e-05
2.90613e-05
2.91355e-05
2.91718e-05
2.91873e-05
2.91927e-05
2.91941e-05
2.91941e-05
2.91926e-05
2.91871e-05
2.91716e-05
2.91353e-05
2.90612e-05
2.89243e-05
2.86904e-05
2.83161e-05
2.77539e-05
2.69749e-05
2.61471e-05
2.65956e-05
3.6366e-05
7.85984e-05
7.89204e-05
3.65521e-05
2.65858e-05
2.59857e-05
2.67987e-05
2.75918e-05
2.81775e-05
2.85783e-05
2.88383e-05
2.89984e-05
2.90918e-05
2.9143e-05
2.91693e-05
2.91816e-05
2.91863e-05
2.91863e-05
2.91815e-05
2.9169e-05
2.91425e-05
2.9091e-05
2.89977e-05
2.8838e-05
2.85792e-05
2.81806e-05
2.75977e-05
2.68076e-05
2.59963e-05
2.65935e-05
3.65551e-05
7.89082e-05
7.9324e-05
3.6837e-05
2.66112e-05
2.57812e-05
2.65605e-05
2.73639e-05
2.79756e-05
2.84083e-05
2.87011e-05
2.88918e-05
2.90113e-05
2.90833e-05
2.91249e-05
2.91472e-05
2.91569e-05
2.91568e-05
2.91471e-05
2.91245e-05
2.90824e-05
2.90097e-05
2.88897e-05
2.86991e-05
2.84075e-05
2.79775e-05
2.73701e-05
2.65717e-05
2.57961e-05
2.66223e-05
3.68398e-05
7.93067e-05
7.9808e-05
3.72487e-05
2.6701e-05
2.55258e-05
2.62411e-05
2.70492e-05
2.76891e-05
2.81592e-05
2.84917e-05
2.872e-05
2.88724e-05
2.89712e-05
2.90327e-05
2.90682e-05
2.90844e-05
2.90845e-05
2.90682e-05
2.90323e-05
2.89699e-05
2.88698e-05
2.8716e-05
2.84868e-05
2.81548e-05
2.76876e-05
2.70534e-05
2.62534e-05
2.55454e-05
2.67173e-05
3.72518e-05
7.97832e-05
8.03621e-05
3.78337e-05
2.69145e-05
2.52254e-05
2.58275e-05
2.66301e-05
2.72966e-05
2.78068e-05
2.8184e-05
2.84556e-05
2.86465e-05
2.87769e-05
2.88625e-05
2.89141e-05
2.89384e-05
2.89386e-05
2.89145e-05
2.88626e-05
2.87757e-05
2.8643e-05
2.84493e-05
2.81749e-05
2.77964e-05
2.7288e-05
2.6628e-05
2.5837e-05
2.52481e-05
2.69374e-05
3.78385e-05
8.03271e-05
8.09974e-05
3.86711e-05
2.73731e-05
2.49406e-05
2.53335e-05
2.60942e-05
2.67756e-05
2.73245e-05
2.77484e-05
2.80664e-05
2.82989e-05
2.84642e-05
2.85764e-05
2.86459e-05
2.86794e-05
2.868e-05
2.86473e-05
2.85778e-05
2.84642e-05
2.82959e-05
2.80586e-05
2.77349e-05
2.7306e-05
2.67555e-05
2.60791e-05
2.53324e-05
2.49603e-05
2.74023e-05
3.868e-05
8.09508e-05
8.19927e-05
3.99198e-05
2.83248e-05
2.48551e-05
2.47998e-05
2.54301e-05
2.61055e-05
2.66881e-05
2.71574e-05
2.75209e-05
2.77945e-05
2.79942e-05
2.81329e-05
2.82203e-05
2.82631e-05
2.82643e-05
2.82235e-05
2.8137e-05
2.79974e-05
2.77943e-05
2.75142e-05
2.71414e-05
2.66616e-05
2.60705e-05
2.53939e-05
2.47757e-05
2.4859e-05
2.83558e-05
3.99367e-05
8.1949e-05
8.31903e-05
4.20062e-05
2.99891e-05
2.51139e-05
2.42681e-05
2.46558e-05
2.52918e-05
2.58986e-05
2.6404e-05
2.68042e-05
2.71117e-05
2.73399e-05
2.75003e-05
2.76023e-05
2.76527e-05
2.76548e-05
2.76083e-05
2.7509e-05
2.73492e-05
2.71184e-05
2.68039e-05
2.63913e-05
2.58688e-05
2.52431e-05
2.45939e-05
2.42086e-05
2.5086e-05
3.00047e-05
4.20515e-05
8.31266e-05
8.44108e-05
4.53327e-05
3.22882e-05
2.60429e-05
2.40917e-05
2.39889e-05
2.45083e-05
2.50899e-05
2.5583e-05
2.59861e-05
2.63035e-05
2.65408e-05
2.67076e-05
2.68141e-05
2.68673e-05
2.68705e-05
2.68237e-05
2.67226e-05
2.65593e-05
2.63223e-05
2.60001e-05
2.55849e-05
2.50704e-05
2.4458e-05
2.3908e-05
2.40033e-05
2.59753e-05
3.22843e-05
4.54058e-05
8.43521e-05
8.60971e-05
4.9472e-05
3.62428e-05
2.84985e-05
2.5119e-05
2.44559e-05
2.46694e-05
2.50075e-05
2.53152e-05
2.56074e-05
2.58436e-05
2.60214e-05
2.61484e-05
2.62313e-05
2.62741e-05
2.62785e-05
2.62445e-05
2.61703e-05
2.60509e-05
2.5878e-05
2.56421e-05
2.53425e-05
2.50174e-05
2.46478e-05
2.43915e-05
2.50189e-05
2.84259e-05
3.62349e-05
4.95955e-05
8.60796e-05
9.01512e-05
5.06993e-05
4.10942e-05
3.29589e-05
3.01704e-05
2.95748e-05
2.93768e-05
2.91289e-05
2.89101e-05
2.8723e-05
2.85683e-05
2.84522e-05
2.83746e-05
2.83294e-05
2.83104e-05
2.83143e-05
2.83414e-05
2.83951e-05
2.84814e-05
2.8605e-05
2.87656e-05
2.89555e-05
2.91715e-05
2.94045e-05
2.95694e-05
3.01318e-05
3.29176e-05
4.11163e-05
5.09076e-05
9.02157e-05
7.82483e-05
2.35958e-05
4.12371e-05
4.20405e-05
4.33165e-05
4.35291e-05
4.31362e-05
4.2756e-05
4.22627e-05
4.17457e-05
4.12886e-05
4.09302e-05
4.06713e-05
4.0504e-05
4.04222e-05
4.04226e-05
4.05055e-05
4.06742e-05
4.09355e-05
4.12975e-05
4.17584e-05
4.22784e-05
4.27751e-05
4.31701e-05
4.35684e-05
4.33564e-05
4.20937e-05
4.13092e-05
2.37022e-05
7.83958e-05
0.000211415
0.000107237
9.29341e-05
8.51493e-05
8.25472e-05
8.12065e-05
8.02844e-05
7.93714e-05
7.85178e-05
7.78262e-05
7.7364e-05
7.70629e-05
7.68449e-05
7.66996e-05
7.66254e-05
7.66219e-05
7.66888e-05
7.68261e-05
7.7035e-05
7.73278e-05
7.77955e-05
7.84788e-05
7.93198e-05
8.02041e-05
8.11248e-05
8.24836e-05
8.51316e-05
9.29943e-05
0.000107414
0.000211809
0.000187292
9.40131e-05
8.30642e-05
7.73143e-05
7.58689e-05
7.52572e-05
7.4764e-05
7.41775e-05
7.37016e-05
7.33079e-05
7.29408e-05
7.26236e-05
7.23857e-05
7.22262e-05
7.21429e-05
7.21346e-05
7.22016e-05
7.23461e-05
7.25712e-05
7.28766e-05
7.32174e-05
7.36069e-05
7.40893e-05
7.47094e-05
7.5224e-05
7.58603e-05
7.73359e-05
8.3124e-05
9.41352e-05
0.000187548
7.03924e-05
3.01949e-05
5.11359e-05
5.40985e-05
5.69617e-05
5.91868e-05
6.0484e-05
6.06426e-05
6.00552e-05
5.90916e-05
5.80563e-05
5.71279e-05
5.63965e-05
5.58987e-05
5.56468e-05
5.56448e-05
5.58942e-05
5.63939e-05
5.71342e-05
5.80793e-05
5.91389e-05
6.01336e-05
6.07531e-05
6.06142e-05
5.93419e-05
5.71225e-05
5.42384e-05
5.12636e-05
3.03937e-05
7.0509e-05
8.17205e-05
5.6545e-05
5.09207e-05
4.4904e-05
4.04546e-05
3.79734e-05
3.6475e-05
3.54291e-05
3.4641e-05
3.39198e-05
3.32982e-05
3.28065e-05
3.24524e-05
3.22289e-05
3.21264e-05
3.21392e-05
3.22675e-05
3.25169e-05
3.28962e-05
3.34101e-05
3.40476e-05
3.47738e-05
3.55537e-05
3.65807e-05
3.80199e-05
4.04301e-05
4.4857e-05
5.09706e-05
5.67005e-05
8.17827e-05
7.86032e-05
5.9639e-05
4.8958e-05
3.73014e-05
3.05297e-05
2.73546e-05
2.61093e-05
2.55941e-05
2.5325e-05
2.5043e-05
2.48171e-05
2.46612e-05
2.45687e-05
2.45237e-05
2.45125e-05
2.45276e-05
2.45682e-05
2.46402e-05
2.47548e-05
2.49247e-05
2.51506e-05
2.54064e-05
2.56343e-05
2.60854e-05
2.72558e-05
3.03788e-05
3.71824e-05
4.9033e-05
5.98114e-05
7.86186e-05
7.73133e-05
5.78509e-05
4.373e-05
3.18215e-05
2.58976e-05
2.34984e-05
2.25459e-05
2.22837e-05
2.2275e-05
2.23262e-05
2.23892e-05
2.24602e-05
2.25415e-05
2.26124e-05
2.2658e-05
2.26703e-05
2.26477e-05
2.25952e-05
2.25249e-05
2.24536e-05
2.23786e-05
2.22983e-05
2.22618e-05
2.24688e-05
2.33746e-05
2.57601e-05
3.17515e-05
4.38265e-05
5.79854e-05
7.72766e-05
7.65326e-05
5.63611e-05
3.83672e-05
2.80381e-05
2.37507e-05
2.2134e-05
2.18043e-05
2.19141e-05
2.21368e-05
2.23582e-05
2.25476e-05
2.27039e-05
2.28305e-05
2.29231e-05
2.29758e-05
2.2984e-05
2.29462e-05
2.28638e-05
2.27405e-05
2.25785e-05
2.23728e-05
2.21234e-05
2.18647e-05
2.17208e-05
2.20358e-05
2.36704e-05
2.80332e-05
3.84985e-05
5.6441e-05
7.6454e-05
7.59801e-05
5.43211e-05
3.42919e-05
2.57569e-05
2.25531e-05
2.18156e-05
2.19644e-05
2.23052e-05
2.26463e-05
2.29383e-05
2.31734e-05
2.33558e-05
2.3492e-05
2.3585e-05
2.36347e-05
2.36395e-05
2.35984e-05
2.35102e-05
2.33733e-05
2.31835e-05
2.29342e-05
2.26226e-05
2.22606e-05
2.19062e-05
2.1762e-05
2.25356e-05
2.58088e-05
3.4419e-05
5.43729e-05
7.58834e-05
7.54712e-05
5.20688e-05
3.18252e-05
2.43984e-05
2.20126e-05
2.18835e-05
2.23115e-05
2.27925e-05
2.32055e-05
2.35332e-05
2.37835e-05
2.39691e-05
2.41014e-05
2.41879e-05
2.42321e-05
2.42349e-05
2.41952e-05
2.41107e-05
2.39766e-05
2.37848e-05
2.35249e-05
2.31861e-05
2.27647e-05
2.2284e-05
2.18714e-05
2.20367e-05
2.44739e-05
3.19247e-05
5.20818e-05
7.53944e-05
7.49101e-05
4.98331e-05
3.02171e-05
2.35265e-05
2.1826e-05
2.20817e-05
2.26716e-05
2.32278e-05
2.36775e-05
2.40198e-05
2.42714e-05
2.4451e-05
2.4574e-05
2.46515e-05
2.46897e-05
2.46912e-05
2.46554e-05
2.45786e-05
2.4454e-05
2.42705e-05
2.40138e-05
2.36672e-05
2.32171e-05
2.26682e-05
2.20971e-05
2.18706e-05
2.3601e-05
3.02934e-05
4.98175e-05
7.48377e-05
7.44512e-05
4.78664e-05
2.91587e-05
2.3095e-05
2.19175e-05
2.23482e-05
2.30059e-05
2.35901e-05
2.40488e-05
2.43891e-05
2.46321e-05
2.47998e-05
2.49107e-05
2.49781e-05
2.50104e-05
2.50112e-05
2.49803e-05
2.49132e-05
2.48014e-05
2.46319e-05
2.43872e-05
2.4047e-05
2.3592e-05
2.30172e-05
2.23758e-05
2.19656e-05
2.31569e-05
2.92116e-05
4.78348e-05
7.43864e-05
7.40925e-05
4.62608e-05
2.84454e-05
2.29016e-05
2.20986e-05
2.2619e-05
2.32976e-05
2.38812e-05
2.43308e-05
2.46577e-05
2.48854e-05
2.5038e-05
2.51356e-05
2.51929e-05
2.52196e-05
2.52201e-05
2.51942e-05
2.51372e-05
2.50396e-05
2.48868e-05
2.46594e-05
2.43346e-05
2.389e-05
2.33152e-05
2.26488e-05
2.2141e-05
2.29468e-05
2.84787e-05
4.6225e-05
7.40381e-05
7.38239e-05
4.50376e-05
2.79543e-05
2.28195e-05
2.2282e-05
2.2855e-05
2.35352e-05
2.41055e-05
2.45374e-05
2.48458e-05
2.50558e-05
2.51925e-05
2.52771e-05
2.53251e-05
2.53469e-05
2.53472e-05
2.53261e-05
2.52785e-05
2.51943e-05
2.50581e-05
2.48495e-05
2.45438e-05
2.41166e-05
2.35531e-05
2.28811e-05
2.23148e-05
2.28495e-05
2.7973e-05
4.50048e-05
7.37809e-05
7.36345e-05
4.41722e-05
2.76356e-05
2.27892e-05
2.24314e-05
2.30374e-05
2.3713e-05
2.42676e-05
2.4681e-05
2.49711e-05
2.51645e-05
2.52871e-05
2.53605e-05
2.54009e-05
2.54187e-05
2.5419e-05
2.54017e-05
2.53618e-05
2.52889e-05
2.51671e-05
2.49752e-05
2.46876e-05
2.42778e-05
2.37279e-05
2.30573e-05
2.24546e-05
2.28082e-05
2.76453e-05
4.41459e-05
7.36025e-05
7.35152e-05
4.36279e-05
2.74482e-05
2.27815e-05
2.25337e-05
2.31591e-05
2.38299e-05
2.4372e-05
2.4771e-05
2.5047e-05
2.52278e-05
2.534e-05
2.54054e-05
2.54404e-05
2.54554e-05
2.54555e-05
2.54409e-05
2.54063e-05
2.53414e-05
2.523e-05
2.50504e-05
2.47761e-05
2.43797e-05
2.38405e-05
2.31726e-05
2.25485e-05
2.27925e-05
2.74533e-05
4.3611e-05
7.34938e-05
7.34617e-05
4.34012e-05
2.73658e-05
2.27807e-05
2.2584e-05
2.32186e-05
2.38868e-05
2.44224e-05
2.48137e-05
2.50823e-05
2.52565e-05
2.53632e-05
2.54245e-05
2.54566e-05
2.54701e-05
2.54702e-05
2.54568e-05
2.5425e-05
2.53641e-05
2.52578e-05
2.50843e-05
2.48168e-05
2.44268e-05
2.38927e-05
2.3226e-05
2.2592e-05
2.27864e-05
2.73698e-05
4.33973e-05
7.34502e-05
7.34662e-05
4.34006e-05
2.73639e-05
2.27769e-05
2.25802e-05
2.32156e-05
2.38845e-05
2.44209e-05
2.48127e-05
2.50816e-05
2.5256e-05
2.53627e-05
2.54239e-05
2.54559e-05
2.54693e-05
2.54693e-05
2.54559e-05
2.54239e-05
2.53628e-05
2.52562e-05
2.5082e-05
2.48134e-05
2.4422e-05
2.38861e-05
2.32175e-05
2.25825e-05
2.27787e-05
2.7367e-05
4.34007e-05
7.34622e-05
7.3529e-05
4.36254e-05
2.74423e-05
2.27694e-05
2.25216e-05
2.31497e-05
2.38232e-05
2.43675e-05
2.4768e-05
2.50449e-05
2.52262e-05
2.53384e-05
2.54037e-05
2.54383e-05
2.5453e-05
2.54529e-05
2.5438e-05
2.54032e-05
2.53378e-05
2.52254e-05
2.50439e-05
2.47666e-05
2.43656e-05
2.38207e-05
2.31467e-05
2.25187e-05
2.27681e-05
2.74458e-05
4.36368e-05
7.35325e-05
7.36586e-05
4.41674e-05
2.76242e-05
2.27666e-05
2.24097e-05
2.30211e-05
2.37019e-05
2.42605e-05
2.46765e-05
2.4968e-05
2.51619e-05
2.52844e-05
2.53574e-05
2.53972e-05
2.54144e-05
2.54142e-05
2.53967e-05
2.53566e-05
2.52833e-05
2.51605e-05
2.49661e-05
2.46738e-05
2.42564e-05
2.36961e-05
2.30136e-05
2.24016e-05
2.27621e-05
2.76285e-05
4.41888e-05
7.36703e-05
7.38598e-05
4.50292e-05
2.79353e-05
2.27836e-05
2.22494e-05
2.28321e-05
2.35208e-05
2.4097e-05
2.45325e-05
2.48424e-05
2.50526e-05
2.51887e-05
2.52722e-05
2.53191e-05
2.53398e-05
2.53396e-05
2.53183e-05
2.52711e-05
2.51875e-05
2.50512e-05
2.48406e-05
2.45296e-05
2.40921e-05
2.35129e-05
2.28208e-05
2.2236e-05
2.27749e-05
2.79398e-05
4.50593e-05
7.38809e-05
7.41416e-05
4.62463e-05
2.84192e-05
2.28511e-05
2.20555e-05
2.25916e-05
2.32827e-05
2.38741e-05
2.43275e-05
2.46554e-05
2.48823e-05
2.5033e-05
2.51283e-05
2.51835e-05
2.52085e-05
2.52081e-05
2.51825e-05
2.5127e-05
2.50318e-05
2.48815e-05
2.46547e-05
2.43263e-05
2.38707e-05
2.32752e-05
2.25784e-05
2.20376e-05
2.28376e-05
2.8423e-05
4.62817e-05
7.41737e-05
7.45151e-05
4.78456e-05
2.91258e-05
2.30309e-05
2.18689e-05
2.23225e-05
2.29965e-05
2.35893e-05
2.40506e-05
2.43896e-05
2.46294e-05
2.47931e-05
2.48999e-05
2.49636e-05
2.49931e-05
2.49926e-05
2.49623e-05
2.48984e-05
2.47922e-05
2.46298e-05
2.43916e-05
2.40535e-05
2.3591e-05
2.29938e-05
2.23121e-05
2.18501e-05
2.30137e-05
2.913e-05
4.78821e-05
7.45598e-05
7.49896e-05
4.9806e-05
3.01729e-05
2.34532e-05
2.1784e-05
2.20695e-05
2.26779e-05
2.32403e-05
2.36884e-05
2.40249e-05
2.42693e-05
2.44415e-05
2.45578e-05
2.46294e-05
2.46631e-05
2.46624e-05
2.46274e-05
2.45556e-05
2.44406e-05