/*--------------------------------*- C++ -*----------------------------------*\
| =========                 |                                                 |
| \\      /  F ield         | OpenFOAM: The Open Source CFD Toolbox           |
|  \\    /   O peration     | Version:  2312                                  |
|   \\  /    A nd           | Website:  www.openfoam.com                      |
|    \\/     M anipulation  |                                                 |
\*---------------------------------------------------------------------------*/
FoamFile
{
    version     2.0;
    format      ascii;
    arch        "LSB;label=32;scalar=64";
    class       volScalarField;
    location    "200";
    object      nut;
}
// * * * * * * * * * * * * * * * * * * * * * * * * * * * * * * * * * * * * * //

dimensions      [0 2 -1 0 0 0 0];

internalField   nonuniform List<scalar> 
27000
(
3.95127e-06
6.70529e-06
9.36189e-06
1.17374e-05
1.40453e-05
1.61988e-05
1.81535e-05
1.98042e-05
2.12241e-05
2.2437e-05
2.34384e-05
2.42317e-05
2.48244e-05
2.52194e-05
2.54177e-05
2.54199e-05
2.52259e-05
2.48349e-05
2.42455e-05
2.34542e-05
2.24517e-05
2.12387e-05
1.9818e-05
1.81656e-05
1.62082e-05
1.40512e-05
1.17392e-05
9.35983e-06
6.70163e-06
3.949e-06
5.75215e-06
1.28647e-06
5.16853e-06
9.08868e-06
1.31854e-05
1.70809e-05
2.07593e-05
2.41756e-05
2.72645e-05
3.0006e-05
3.23851e-05
3.43614e-05
3.58843e-05
3.69164e-05
3.74336e-05
3.74243e-05
3.68892e-05
3.58415e-05
3.43071e-05
3.23268e-05
2.99517e-05
2.72113e-05
2.41259e-05
2.07161e-05
1.70473e-05
1.3163e-05
9.07837e-06
5.16118e-06
1.28161e-06
5.74921e-06
9.22678e-06
7.15209e-06
1.44934e-05
2.60921e-05
3.68462e-05
4.62545e-05
5.48696e-05
6.29328e-05
7.02598e-05
7.67155e-05
8.22366e-05
8.67642e-05
9.02219e-05
9.25498e-05
9.37124e-05
9.36945e-05
9.24987e-05
9.01457e-05
8.66775e-05
8.21575e-05
7.66525e-05
7.02094e-05
6.28968e-05
5.48476e-05
4.62464e-05
3.68471e-05
2.61225e-05
1.45237e-05
7.1308e-06
9.22588e-06
1.21532e-05
1.08619e-05
2.60396e-05
5.25764e-05
7.823e-05
9.63818e-05
0.000109896
0.000120964
0.000130299
0.000138058
0.000144415
0.000149477
0.000153263
0.000155781
0.000157034
0.000157029
0.00015577
0.000153257
0.000149487
0.000144448
0.000138101
0.000130354
0.000121011
0.000109901
9.63326e-05
7.81766e-05
5.26049e-05
2.60758e-05
1.08399e-05
1.21566e-05
1.49168e-05
1.45066e-05
3.68903e-05
7.61848e-05
0.000113359
0.000139283
0.00015613
0.000167937
0.000176842
0.000183347
0.000188284
0.000192152
0.000195005
0.000196882
0.000197814
0.000197817
0.000196893
0.000195029
0.000192192
0.000188317
0.00018331
0.000176843
0.000167922
0.000156037
0.000139144
0.000113271
7.62217e-05
3.69143e-05
1.44796e-05
1.49245e-05
1.74765e-05
1.84552e-05
4.77616e-05
9.52786e-05
0.000137919
0.000167392
0.00018559
0.000196945
0.000204429
0.000209505
0.000213041
0.00021558
0.00021737
0.00021852
0.000219084
0.000219085
0.000218525
0.00021738
0.000215592
0.00021304
0.000209476
0.000204386
0.000196862
0.000185468
0.000167318
0.000137901
9.53399e-05
4.77708e-05
1.84227e-05
1.74875e-05
1.98085e-05
2.26077e-05
5.86843e-05
0.000111559
0.000155825
0.000185234
0.000202994
0.00021335
0.000219468
0.000223187
0.000225518
0.000227027
0.00022801
0.000228612
0.000228898
0.000228895
0.000228605
0.000228001
0.000227012
0.00022549
0.00022314
0.0002194
0.000213259
0.000202902
0.00018519
0.000155856
0.000111624
5.86533e-05
2.2567e-05
1.98216e-05
2.18933e-05
2.68081e-05
6.92421e-05
0.000125652
0.000169906
0.000197416
0.000213462
0.000222364
0.000227195
0.000229812
0.000231243
0.000232042
0.000232496
0.000232745
0.000232855
0.000232851
0.000232732
0.000232475
0.000232013
0.000231204
0.000229761
0.000227132
0.000222294
0.000213408
0.000197405
0.000169932
0.000125694
6.91847e-05
2.67603e-05
2.19094e-05
2.37067e-05
3.09285e-05
7.90958e-05
0.000137726
0.000181012
0.0002061
0.00022004
0.000227362
0.000231028
0.000232781
0.000233577
0.000233917
0.000234051
0.000234098
0.000234109
0.000234104
0.000234083
0.000234028
0.000233886
0.000233539
0.000232735
0.000230978
0.000227315
0.000220009
0.000206097
0.000181017
0.000137736
7.90206e-05
3.08803e-05
2.37227e-05
2.52613e-05
3.48099e-05
8.80164e-05
0.000147833
0.000188847
0.000212123
0.000224243
0.000230177
0.000232877
0.00023398
0.000234346
0.000234405
0.000234361
0.000234303
0.000234266
0.000234262
0.00023429
0.00023434
0.000234378
0.000234313
0.000233943
0.000232838
0.000230142
0.000224222
0.000212124
0.000188861
0.000147822
8.79397e-05
3.47673e-05
2.52761e-05
2.65573e-05
3.83015e-05
9.57954e-05
0.000156289
0.000195372
0.000216548
0.000227024
0.000231803
0.000233749
0.000234384
0.00023447
0.000234368
0.000234234
0.000234129
0.000234072
0.000234069
0.000234118
0.000234217
0.000234345
0.000234443
0.000234353
0.000233717
0.000231774
0.000227006
0.000216545
0.000195375
0.000156265
9.57275e-05
3.82672e-05
2.65703e-05
2.75943e-05
4.12699e-05
0.000102225
0.000163034
0.000200456
0.000219814
0.00022891
0.000232771
0.000234154
0.000234466
0.000234377
0.000234188
0.000234015
0.000233896
0.000233835
0.000233833
0.000233887
0.000234001
0.000234169
0.000234354
0.000234439
0.000234127
0.000232746
0.000228892
0.000219805
0.000200448
0.000163003
0.000102169
4.12444e-05
2.76052e-05
2.8372e-05
4.36018e-05
0.000107163
0.0001681
0.000204164
0.000222115
0.000230165
0.000233353
0.00023434
0.000234439
0.000234247
0.000234016
0.000233832
0.000233713
0.000233655
0.000233652
0.000233706
0.00023382
0.000234
0.000234228
0.000234417
0.000234317
0.00023333
0.000230147
0.000222101
0.000204146
0.000168055
0.00010712
4.35843e-05
2.83809e-05
2.88905e-05
4.52076e-05
0.000110508
0.000171487
0.000206581
0.000223576
0.000230933
0.000233684
0.000234423
0.000234395
0.000234147
0.000233898
0.000233713
0.000233599
0.000233545
0.000233543
0.000233593
0.000233704
0.000233885
0.000234131
0.000234377
0.000234404
0.000233665
0.000230917
0.000223563
0.000206563
0.00017145
0.000110478
4.51966e-05
2.88976e-05
2.91498e-05
4.60256e-05
0.000112194
0.000173174
0.000207769
0.000224284
0.000231297
0.000233834
0.000234454
0.000234367
0.000234095
0.00023384
0.000233657
0.000233547
0.000233495
0.000233494
0.000233542
0.00023365
0.00023383
0.000234083
0.000234352
0.000234439
0.000233819
0.000231284
0.000224273
0.000207755
0.000173147
0.000112173
4.60192e-05
2.91555e-05
2.91499e-05
4.60253e-05
0.000112192
0.000173169
0.000207765
0.000224281
0.000231295
0.000233832
0.000234454
0.000234366
0.000234095
0.00023384
0.000233657
0.000233547
0.000233496
0.000233495
0.000233544
0.000233652
0.000233833
0.000234086
0.000234356
0.000234442
0.000233822
0.000231286
0.000224274
0.000207756
0.00017315
0.000112178
4.60214e-05
2.91546e-05
2.88909e-05
4.52066e-05
0.000110502
0.000171473
0.00020657
0.000223569
0.000230928
0.000233681
0.000234422
0.000234394
0.000234147
0.000233899
0.000233714
0.0002336
0.000233547
0.000233546
0.000233598
0.00023371
0.000233893
0.00023414
0.000234387
0.000234414
0.000233674
0.000230924
0.000223566
0.000206565
0.000171459
0.000110491
4.52036e-05
2.8895e-05
2.83727e-05
4.36008e-05
0.000107155
0.00016808
0.000204149
0.000222105
0.000230159
0.00023335
0.00023434
0.00023444
0.000234249
0.000234018
0.000233834
0.000233716
0.000233659
0.000233659
0.000233714
0.000233831
0.000234014
0.000234244
0.000234435
0.000234336
0.000233347
0.000230159
0.000222106
0.000204149
0.000168069
0.000107145
4.35974e-05
2.83765e-05
2.75954e-05
4.12695e-05
0.000102218
0.000163016
0.000200442
0.000219805
0.000228907
0.000232772
0.000234158
0.000234471
0.000234382
0.000234193
0.000234021
0.000233902
0.000233843
0.000233842
0.0002339
0.000234018
0.00023419
0.000234379
0.000234467
0.000234156
0.000232772
0.00022891
0.000219812
0.000200449
0.000163016
0.000102209
4.12651e-05
2.75991e-05
2.65588e-05
3.83027e-05
9.57923e-05
0.000156275
0.000195361
0.000216544
0.000227027
0.000231811
0.000233761
0.000234396
0.000234482
0.000234378
0.000234243
0.000234139
0.000234084
0.000234083
0.000234137
0.00023424
0.000234374
0.000234478
0.000234393
0.000233759
0.000231812
0.000227033
0.000216556
0.000195376
0.000156282
9.57852e-05
3.82971e-05
2.65628e-05
2.5263e-05
3.48133e-05
8.80205e-05
0.000147825
0.000188841
0.000212125
0.000224255
0.000230197
0.0002329
0.000234002
0.000234364
0.000234421
0.000234375
0.000234317
0.000234281
0.000234281
0.000234314
0.000234371
0.000234416
0.000234359
0.000233997
0.000232896
0.000230196
0.000224263
0.000212142
0.000188865
0.000147843
8.80169e-05
3.48067e-05
2.52675e-05
2.37085e-05
3.09346e-05
7.91075e-05
0.000137725
0.000181007
0.000206113
0.000220068
0.000227398
0.000231064
0.000232813
0.000233602
0.000233936
0.000234066
0.000234112
0.000234125
0.000234124
0.00023411
0.000234063
0.000233931
0.000233596
0.000232804
0.000231055
0.000227392
0.000220072
0.000206132
0.000181034
0.000137758
7.91099e-05
3.09272e-05
2.37135e-05
2.18949e-05
2.68169e-05
6.92615e-05
0.000125663
0.000169924
0.000197454
0.000213514
0.000222419
0.000227245
0.000229852
0.000231272
0.000232061
0.000232509
0.000232756
0.000232867
0.000232867
0.000232755
0.000232507
0.000232058
0.000231266
0.000229842
0.00022723
0.000222402
0.000213507
0.00019747
0.000169962
0.000125712
6.92725e-05
2.68096e-05
2.19001e-05
1.98091e-05
2.26184e-05
5.8711e-05
0.000111587
0.000155872
0.000185309
0.000203077
0.000213425
0.000219527
0.000223229
0.000225543
0.000227038
0.000228014
0.000228613
0.0002289
0.000228901
0.000228615
0.000228018
0.000227043
0.000225544
0.000223223
0.000219511
0.000213397
0.00020305
0.000185305
0.000155904
0.000111642
5.8729e-05
2.2612e-05
1.98134e-05
1.74767e-05
1.8466e-05
4.7791e-05
9.53224e-05
0.000137993
0.000167506
0.000185693
0.000197028
0.000204488
0.000209544
0.000213056
0.000215577
0.000217359
0.000218508
0.000219072
0.000219074
0.000218515
0.000217373
0.000215595
0.000213072
0.000209551
0.000204487
0.000197005
0.000185649
0.000167483
0.000137989
9.53621e-05
4.78146e-05
1.84602e-05
1.74804e-05
1.49164e-05
1.45159e-05
3.69176e-05
7.62329e-05
0.000113434
0.000139376
0.000156217
0.000168014
0.000176897
0.000183386
0.000188283
0.000192134
0.000194982
0.00019686
0.000197792
0.000197795
0.00019687
0.000195003
0.000192167
0.000188319
0.000183396
0.000176922
0.000168026
0.000156178
0.0001393
0.000113371
7.62394e-05
3.6935e-05
1.45096e-05
1.4919e-05
1.21525e-05
1.08686e-05
2.60594e-05
5.26074e-05
7.82752e-05
9.64295e-05
0.000109937
0.000120996
0.000130319
0.000138064
0.000144406
0.000149462
0.000153248
0.000155767
0.000157025
0.000157025
0.000155769
0.000153257
0.000149486
0.000144448
0.000138118
0.00013038
0.000121045
0.000109948
9.63909e-05
7.82164e-05
5.25884e-05
2.60724e-05
1.08622e-05
1.21534e-05
9.22602e-06
7.15464e-06
1.44962e-05
2.6099e-05
3.68587e-05
4.62744e-05
5.48959e-05
6.29599e-05
7.02835e-05
7.67332e-05
8.22494e-05
8.6776e-05
9.02363e-05
9.25703e-05
9.37428e-05
9.37384e-05
9.25583e-05
9.02205e-05
8.6763e-05
8.22468e-05
7.67427e-05
7.02995e-05
6.29756e-05
5.49041e-05
4.62708e-05
3.68448e-05
2.6096e-05
1.45059e-05
7.14689e-06
9.22531e-06
5.7515e-06
1.2875e-06
5.17047e-06
9.09176e-06
1.31918e-05
1.7091e-05
2.0771e-05
2.41871e-05
2.72744e-05
3.00139e-05
3.23916e-05
3.43675e-05
3.58916e-05
3.69268e-05
3.74493e-05
3.7447e-05
3.69203e-05
3.58815e-05
3.43552e-05
3.23796e-05
3.00044e-05
2.72654e-05
2.41778e-05
2.07613e-05
1.70817e-05
1.31843e-05
9.08796e-06
5.16846e-06
1.28615e-06
5.74985e-06
3.95065e-06
6.70417e-06
9.36048e-06
1.1736e-05
1.4044e-05
1.61977e-05
1.81525e-05
1.98032e-05
2.12229e-05
2.24354e-05
2.34367e-05
2.42291e-05
2.48208e-05
2.52143e-05
2.54112e-05
2.54119e-05
2.52165e-05
2.48243e-05
2.4234e-05
2.34425e-05
2.2441e-05
2.12288e-05
1.98092e-05
1.81581e-05
1.62025e-05
1.40472e-05
1.17371e-05
9.35949e-06
6.70212e-06
3.94928e-06
3.56739e-06
6.09863e-06
8.70421e-06
1.10753e-05
1.34466e-05
1.56876e-05
1.77535e-05
1.95267e-05
2.10613e-05
2.23847e-05
2.35056e-05
2.44169e-05
2.51039e-05
2.55629e-05
2.57924e-05
2.57916e-05
2.55607e-05
2.51002e-05
2.44119e-05
2.35002e-05
2.23832e-05
2.10597e-05
1.95244e-05
1.77493e-05
1.56836e-05
1.34437e-05
1.10748e-05
8.70616e-06
6.10227e-06
3.56967e-06
5.13036e-06
1.61613e-06
7.48143e-06
1.10514e-05
1.46333e-05
1.76293e-05
2.01877e-05
2.2587e-05
2.46823e-05
2.64742e-05
2.79538e-05
2.91278e-05
3.0008e-05
3.05966e-05
3.08919e-05
3.08927e-05
3.05991e-05
3.00124e-05
2.91336e-05
2.79579e-05
2.64733e-05
2.46853e-05
2.25985e-05
2.02211e-05
1.76588e-05
1.4649e-05
1.10602e-05
7.48128e-06
1.62456e-06
5.13309e-06
8.69646e-06
1.02869e-05
1.32715e-05
1.67056e-05
2.18532e-05
2.72593e-05
3.22045e-05
3.65417e-05
4.05324e-05
4.413e-05
4.72119e-05
4.97081e-05
5.15991e-05
5.28739e-05
5.35219e-05
5.35371e-05
5.29189e-05
5.16701e-05
4.97943e-05
4.72967e-05
4.42058e-05
4.06027e-05
3.66e-05
3.22369e-05
2.72536e-05
2.18409e-05
1.66889e-05
1.32344e-05
1.03003e-05
8.69651e-06
1.1576e-05
1.34828e-05
1.79284e-05
2.56908e-05
3.59316e-05
4.65155e-05
5.59165e-05
6.40912e-05
7.13777e-05
7.80287e-05
8.37375e-05
8.83397e-05
9.17872e-05
9.40864e-05
9.52494e-05
9.52818e-05
9.41792e-05
9.19256e-05
8.84957e-05
8.38831e-05
7.8149e-05
7.14602e-05
6.4103e-05
5.58358e-05
4.63775e-05
3.5777e-05
2.56394e-05
1.78773e-05
1.34993e-05
1.15729e-05
1.44248e-05
1.59339e-05
2.27246e-05
3.58595e-05
5.42973e-05
7.34634e-05
8.9576e-05
0.000102229
0.00011253
0.000121409
0.00012877
0.000134436
0.000138471
0.000141068
0.000142354
0.000142377
0.00014113
0.000138551
0.000134495
0.000128822
0.000121504
0.000112547
0.000102179
8.94425e-05
7.3296e-05
5.41347e-05
3.57487e-05
2.27048e-05
1.59595e-05
1.44199e-05
1.71365e-05
1.81291e-05
2.84926e-05
4.6919e-05
7.30814e-05
9.95274e-05
0.000121717
0.000137917
0.00014959
0.000158492
0.000165396
0.000170593
0.000174269
0.000176613
0.000177762
0.000177777
0.000176655
0.000174323
0.000170643
0.000165443
0.000158532
0.00014959
0.000137895
0.000121704
9.94615e-05
7.29684e-05
4.68633e-05
2.84812e-05
1.81604e-05
1.71323e-05
1.96468e-05
2.0536e-05
3.37978e-05
5.81255e-05
9.06451e-05
0.000122068
0.000146621
0.000164046
0.000176106
0.000184589
0.000190686
0.000195052
0.000198058
0.000199942
0.000200855
0.000200867
0.000199975
0.000198101
0.000195096
0.000190725
0.000184615
0.000176114
0.000164049
0.000146628
0.000122067
9.06211e-05
5.81545e-05
3.38448e-05
2.05453e-05
1.96439e-05
2.19495e-05
2.30219e-05
3.89058e-05
6.88075e-05
0.000105923
0.00013964
0.000164697
0.000182101
0.000193785
0.00020158
0.000206823
0.000210357
0.000212682
0.000214097
0.00021477
0.000214778
0.00021412
0.000212714
0.000210389
0.000206849
0.000201595
0.00019379
0.000182105
0.000164705
0.000139648
0.000105951
6.88926e-05
3.89646e-05
2.30293e-05
2.19431e-05
2.405e-05
2.53387e-05
4.3813e-05
7.88072e-05
0.000119031
0.00015319
0.000177782
0.000194416
0.000205262
0.0002122
0.000216609
0.0002194
0.000221134
0.000222144
0.000222612
0.000222617
0.000222159
0.000221155
0.000219419
0.000216623
0.000212208
0.000205267
0.000194423
0.000177797
0.000153217
0.000119095
7.89246e-05
4.38717e-05
2.53442e-05
2.40444e-05
2.58914e-05
2.74238e-05
4.82789e-05
8.75324e-05
0.000130224
0.000163807
0.000187341
0.000202844
0.000212653
0.000218684
0.00022232
0.000224479
0.000225734
0.000226423
0.000226729
0.000226732
0.000226431
0.000225745
0.000224489
0.000222328
0.00021869
0.000212661
0.000202859
0.000187366
0.000163848
0.000130292
8.76487e-05
4.83241e-05
2.74264e-05
2.5887e-05
2.74521e-05
2.92415e-05
5.21752e-05
9.47373e-05
0.000138633
0.000171824
0.000194279
0.000208623
0.000217403
0.000222587
0.00022555
0.000227194
0.000228077
0.000228524
0.000228711
0.000228712
0.000228528
0.000228082
0.000227199
0.000225555
0.000222593
0.000217414
0.000208642
0.000194308
0.000171864
0.000138693
9.48342e-05
5.22032e-05
2.92423e-05
2.74488e-05
2.87171e-05
3.07555e-05
5.54346e-05
0.000100512
0.000145031
0.000177735
0.000199229
0.000212552
0.000220439
0.000224907
0.000227326
0.000228572
0.00022918
0.000229455
0.000229558
0.000229559
0.000229456
0.000229182
0.000228575
0.000227329
0.000224913
0.00022045
0.000212569
0.000199252
0.000177765
0.000145073
0.000100579
5.54478e-05
3.07557e-05
2.87147e-05
2.96748e-05
3.1929e-05
5.79683e-05
0.000104908
0.000149728
0.000181939
0.000202638
0.00021515
0.000222339
0.000226259
0.000228273
0.000229234
0.000229651
0.00022981
0.000229858
0.000229858
0.00022981
0.000229652
0.000229235
0.000228275
0.000226264
0.000222347
0.000215162
0.000202652
0.000181953
0.000149743
0.000104933
5.79697e-05
3.19294e-05
2.96732e-05
3.03174e-05
3.27313e-05
5.97029e-05
0.000107887
0.000152836
0.000184656
0.000204786
0.000216736
0.000223449
0.000227003
0.000228751
0.00022953
0.000229828
0.000229916
0.000229932
0.000229932
0.000229916
0.000229828
0.00022953
0.000228752
0.000227005
0.000223454
0.000216742
0.000204791
0.000184658
0.000152838
0.000107897
5.96996e-05
3.27324e-05
3.03161e-05
3.06396e-05
3.31409e-05
6.05876e-05
0.000109391
0.000154389
0.000185995
0.000205829
0.000217491
0.000223964
0.000227335
0.000228952
0.000229641
0.000229883
0.000229938
0.000229939
0.000229939
0.000229938
0.000229882
0.00022964
0.000228951
0.000227335
0.000223965
0.000217492
0.000205828
0.000185992
0.000154386
0.000109397
6.05843e-05
3.31436e-05
3.06385e-05
3.0639e-05
3.31415e-05
6.0591e-05
0.000109404
0.0001544
0.000186003
0.000205835
0.000217496
0.000223969
0.000227339
0.000228956
0.000229645
0.000229887
0.000229943
0.000229944
0.000229943
0.000229942
0.000229886
0.000229643
0.000228953
0.000227336
0.000223966
0.000217494
0.000205831
0.000185998
0.000154398
0.00010941
6.05883e-05
3.31447e-05
3.06379e-05
3.03155e-05
3.27334e-05
5.97128e-05
0.000107928
0.000152868
0.000184677
0.000204802
0.00021675
0.000223462
0.000227015
0.000228763
0.000229541
0.00022984
0.000229929
0.000229945
0.000229945
0.000229928
0.000229838
0.000229538
0.000228758
0.000227009
0.000223456
0.000216744
0.000204797
0.000184674
0.000152869
0.000107938
5.97121e-05
3.27374e-05
3.03143e-05
2.96716e-05
3.19325e-05
5.79835e-05
0.000104976
0.000149777
0.00018197
0.00020266
0.000215169
0.000222357
0.000226277
0.000228291
0.000229253
0.000229671
0.000229831
0.00022988
0.000229879
0.000229829
0.000229667
0.000229247
0.000228283
0.000226267
0.000222346
0.000215159
0.000202652
0.000181967
0.000149783
0.000104993
5.79855e-05
3.19372e-05
2.967e-05
2.87124e-05
3.07598e-05
5.5452e-05
0.000100606
0.000145091
0.000177768
0.000199252
0.000212573
0.00022046
0.000224929
0.000227349
0.000228597
0.000229207
0.000229484
0.000229588
0.000229587
0.000229481
0.000229202
0.000228588
0.000227336
0.000224913
0.000220443
0.000212556
0.000199239
0.000177764
0.000145103
0.000100639
5.54565e-05
3.07648e-05
2.87102e-05
2.7446e-05
2.92461e-05
5.21882e-05
9.48454e-05
0.000138694
0.000171853
0.000194299
0.000208643
0.000217425
0.000222611
0.000225576
0.000227224
0.000228111
0.000228561
0.000228748
0.000228747
0.000228557
0.000228103
0.000227212
0.000225559
0.000222588
0.000217399
0.000208616
0.000194276
0.000171841
0.000138705
9.48872e-05
5.21926e-05
2.92504e-05
2.7443e-05
2.58839e-05
2.74279e-05
4.82818e-05
8.76386e-05
0.000130279
0.000163829
0.000187353
0.00020286
0.000212674
0.000218709
0.000222349
0.000224514
0.000225774
0.000226467
0.000226773
0.000226772
0.000226463
0.000225766
0.000224499
0.000222327
0.00021868
0.000212639
0.000202822
0.000187318
0.000163805
0.000130282
8.76816e-05
4.82819e-05
2.74306e-05
2.58797e-05
2.40413e-05
2.53421e-05
4.38056e-05
7.88965e-05
0.000119094
0.000153195
0.000177777
0.000194421
0.000205279
0.000212225
0.00021664
0.000219439
0.000221182
0.000222197
0.000222665
0.000222664
0.000222195
0.000221175
0.000219425
0.000216617
0.000212191
0.000205238
0.000194373
0.000177724
0.00015315
0.00011909
7.89282e-05
4.37988e-05
2.53428e-05
2.40358e-05
2.19404e-05
2.30239e-05
3.88864e-05
6.88459e-05
0.000105908
0.000139577
0.000164645
0.000182082
0.000193791
0.000201601
0.000206856
0.000210402
0.000212738
0.000214159
0.000214832
0.000214833
0.00021416
0.000212736
0.000210391
0.000206834
0.000201567
0.000193746
0.000182026
0.000164572
0.000139491
0.000105851
6.88444e-05
3.887e-05
2.30223e-05
2.19338e-05
1.96395e-05
2.05367e-05
3.37645e-05
5.80802e-05
9.05038e-05
0.000121867
0.000146484
0.000163979
0.000176088
0.000184598
0.000190718
0.000195104
0.000198124
0.000200015
0.000200928
0.000200931
0.000200023
0.00019813
0.000195102
0.000190702
0.000184566
0.000176038
0.00016391
0.00014638
0.000121718
9.03742e-05
5.80283e-05
3.37384e-05
2.05345e-05
1.9634e-05
1.71304e-05
1.81403e-05
2.84563e-05
4.68336e-05
7.28585e-05
9.92219e-05
0.000121444
0.000137786
0.000149532
0.000158482
0.000165432
0.000170661
0.000174348
0.000176696
0.000177841
0.000177847
0.000176712
0.000174367
0.000170672
0.00016543
0.000158459
0.000149472
0.00013769
0.000121281
9.90217e-05
7.26753e-05
4.67436e-05
2.8414e-05
1.81532e-05
1.71231e-05
1.44214e-05
1.59554e-05
2.26951e-05
3.57873e-05
5.41395e-05
7.31764e-05
8.93045e-05
0.000102054
0.000112439
0.000121389
0.000128831
0.00013453
0.000138556
0.000141153
0.000142435
0.000142445
0.000141182
0.000138594
0.000134564
0.000128861
0.000121416
0.000112402
0.000101953
8.91288e-05
7.29768e-05
5.40015e-05
3.56962e-05
2.26605e-05
1.59759e-05
1.44163e-05
1.15775e-05
1.35159e-05
1.7936e-05
2.56692e-05
3.58545e-05
4.64079e-05
5.58146e-05
6.40128e-05
7.13355e-05
7.80386e-05
8.3788e-05
8.84097e-05
9.18597e-05
9.41538e-05
9.53062e-05
9.53235e-05
9.42032e-05
9.19334e-05
8.84929e-05
8.38633e-05
7.80912e-05
7.13496e-05
6.39857e-05
5.57477e-05
4.63194e-05
3.57659e-05
2.56537e-05
1.79201e-05
1.35434e-05
1.15764e-05
8.70223e-06
1.03318e-05
1.32864e-05
1.66976e-05
2.18372e-05
2.72357e-05
3.21679e-05
3.64997e-05
4.04945e-05
4.41058e-05
4.72025e-05
4.97096e-05
5.16073e-05
5.28858e-05
5.3533e-05
5.35404e-05
5.29069e-05
5.16374e-05
4.97389e-05
4.72193e-05
4.41063e-05
4.04842e-05
3.64867e-05
3.21554e-05
2.72232e-05
2.18309e-05
1.66925e-05
1.32832e-05
1.03719e-05
8.7055e-06
5.13531e-06
1.62099e-06
7.49547e-06
1.10712e-05
1.46553e-05
1.76463e-05
2.0194e-05
2.25834e-05
2.46805e-05
2.64767e-05
2.79605e-05
2.91384e-05
3.00222e-05
3.06138e-05
3.09113e-05
3.09129e-05
3.06184e-05
3.00286e-05
2.91448e-05
2.79639e-05
2.64747e-05
2.46764e-05
2.25811e-05
2.0204e-05
1.76594e-05
1.46679e-05
1.10833e-05
7.5047e-06
1.6275e-06
5.14017e-06
3.57119e-06
6.10552e-06
8.71063e-06
1.10794e-05
1.34471e-05
1.56843e-05
1.77472e-05
1.95198e-05
2.10535e-05
2.23763e-05
2.3496e-05
2.44073e-05
2.50946e-05
2.55539e-05
2.57836e-05
2.5783e-05
2.55521e-05
2.50915e-05
2.44029e-05
2.34906e-05
2.23718e-05
2.10483e-05
1.95134e-05
1.77385e-05
1.56767e-05
1.34422e-05
1.10785e-05
8.71359e-06
6.11059e-06
3.5745e-06
3.36289e-06
5.71946e-06
8.2374e-06
1.05589e-05
1.28929e-05
1.50999e-05
1.71265e-05
1.88678e-05
2.03942e-05
2.17137e-05
2.28143e-05
2.36941e-05
2.43557e-05
2.47976e-05
2.50182e-05
2.50168e-05
2.47934e-05
2.43491e-05
2.36856e-05
2.28044e-05
2.1701e-05
2.03819e-05
1.88572e-05
1.71202e-05
1.50966e-05
1.28926e-05
1.05611e-05
8.2411e-06
5.72388e-06
3.36559e-06
4.87264e-06
2.48733e-06
1.07347e-05
1.59507e-05
2.09393e-05
2.53751e-05
2.91931e-05
3.21724e-05
3.44663e-05
3.62017e-05
3.75215e-05
3.85173e-05
3.92385e-05
3.97108e-05
3.99473e-05
3.99534e-05
3.97295e-05
3.92708e-05
3.85649e-05
3.75858e-05
3.62822e-05
3.45557e-05
3.22632e-05
2.92702e-05
2.54441e-05
2.09912e-05
1.59798e-05
1.07513e-05
2.50476e-06
4.87709e-06
8.28787e-06
1.30617e-05
1.74389e-05
2.13207e-05
2.42725e-05
2.72135e-05
3.0101e-05
3.29386e-05
3.57362e-05
3.82327e-05
4.04035e-05
4.22133e-05
4.36196e-05
4.4585e-05
4.50837e-05
4.51022e-05
4.46388e-05
4.37037e-05
4.23195e-05
4.05215e-05
3.83494e-05
3.58352e-05
3.30135e-05
3.01553e-05
2.72132e-05
2.42093e-05
2.1242e-05
1.74168e-05
1.3085e-05
8.29131e-06
1.10653e-05
1.81203e-05
2.33986e-05
2.52459e-05
2.91068e-05
3.50775e-05
4.16583e-05
4.77926e-05
5.31499e-05
5.75398e-05
6.1297e-05
6.44244e-05
6.68736e-05
6.85625e-05
6.94334e-05
6.94567e-05
6.86289e-05
6.69723e-05
6.4542e-05
6.14144e-05
5.76367e-05
5.3179e-05
4.77786e-05
4.16096e-05
3.50081e-05
2.89804e-05
2.5103e-05
2.33887e-05
1.81654e-05
1.10664e-05
1.38043e-05
2.2035e-05
2.64169e-05
2.98244e-05
3.88146e-05
5.12901e-05
6.25914e-05
7.21096e-05
7.99104e-05
8.64093e-05
9.18018e-05
9.61927e-05
9.98221e-05
0.000102384
0.000103704
0.000103723
0.000102435
9.98957e-05
9.63095e-05
9.18922e-05
8.64693e-05
7.99092e-05
7.20654e-05
6.25651e-05
5.13202e-05
3.87558e-05
2.97353e-05
2.64387e-05
2.20889e-05
1.38006e-05
1.64306e-05
2.54597e-05
2.85183e-05
3.60769e-05
5.14407e-05
6.94432e-05
8.66872e-05
0.000101276
0.000113128
0.000122375
0.000129567
0.000135099
0.000139237
0.000141962
0.000143319
0.000143325
0.00014198
0.000139267
0.000135124
0.000129567
0.000122351
0.000113081
0.000101228
8.66099e-05
6.93636e-05
5.13474e-05
3.60182e-05
2.86003e-05
2.55146e-05
1.64221e-05
1.89043e-05
2.81053e-05
3.08474e-05
4.36727e-05
6.35599e-05
8.69956e-05
0.000110005
0.000128627
0.000142415
0.000152622
0.000160182
0.00016572
0.000169645
0.000172168
0.000173405
0.000173407
0.000172172
0.000169646
0.000165714
0.000160168
0.000152611
0.000142421
0.000128638
0.000109963
8.68873e-05
6.34756e-05
4.36634e-05
3.09525e-05
2.81683e-05
1.8892e-05
2.11793e-05
3.02196e-05
3.40575e-05
5.08188e-05
7.48178e-05
0.000103403
0.000129682
0.000149683
0.000164215
0.000174603
0.000181988
0.000187178
0.000190712
0.00019292
0.000193985
0.000193987
0.000192925
0.000190718
0.000187182
0.000181994
0.000174619
0.000164242
0.000149705
0.000129661
0.000103333
7.47877e-05
5.08546e-05
3.41528e-05
3.02649e-05
2.11676e-05
2.32117e-05
3.19187e-05
3.74711e-05
5.70739e-05
8.46991e-05
0.000117574
0.000145033
0.000165343
0.00017978
0.000189847
0.000196783
0.000201488
0.000204581
0.000206457
0.000207345
0.000207348
0.000206465
0.000204591
0.0002015
0.000196798
0.000189867
0.000179801
0.000165352
0.000145013
0.000117553
8.47377e-05
5.71338e-05
3.75635e-05
3.19457e-05
2.31997e-05
2.50002e-05
3.33142e-05
4.08478e-05
6.30758e-05
9.47042e-05
0.000129499
0.00015694
0.000176843
0.000190732
0.000200208
0.000206559
0.000210732
0.000213385
0.000214946
0.000215671
0.000215674
0.000214955
0.000213397
0.000210746
0.000206575
0.000200224
0.000190744
0.000176842
0.000156923
0.000129488
9.47485e-05
6.31429e-05
4.09297e-05
3.33265e-05
2.49887e-05
2.65256e-05
3.44586e-05
4.39308e-05
6.84302e-05
0.00010338
0.000138796
0.000165921
0.000185167
0.000198342
0.000207137
0.000212878
0.000216534
0.000218782
0.000220065
0.000220647
0.000220649
0.000220073
0.000218794
0.000216548
0.000212892
0.00020715
0.000198351
0.000185168
0.000165917
0.000138808
0.000103446
6.84893e-05
4.39964e-05
3.44614e-05
2.65153e-05
2.77699e-05
3.53799e-05
4.64415e-05
7.28458e-05
0.000110321
0.000145868
0.000172506
0.000191063
0.000203532
0.00021168
0.000216864
0.000220066
0.000221969
0.00022302
0.000223485
0.000223488
0.000223027
0.000221979
0.000220078
0.000216877
0.000211693
0.000203543
0.000191071
0.000172515
0.000145897
0.00011039
7.28887e-05
4.64863e-05
3.5377e-05
2.77614e-05
2.87178e-05
3.60881e-05
4.83954e-05
7.61803e-05
0.000115461
0.000150964
0.000177121
0.000195076
0.000206948
0.00021456
0.00021929
0.000222132
0.000223767
0.000224641
0.000225018
0.00022502
0.000224646
0.000223775
0.000222142
0.000219302
0.000214572
0.00020696
0.000195088
0.000177137
0.000150998
0.000115525
7.62219e-05
4.84238e-05
3.60835e-05
2.87113e-05
2.93571e-05
3.65772e-05
4.97441e-05
7.84025e-05
0.000118842
0.000154265
0.000180055
0.000197571
0.000209016
0.000216248
0.000220661
0.000223254
0.000224707
0.000225462
0.00022578
0.000225781
0.000225466
0.000224713
0.000223262
0.00022067
0.000216257
0.000209025
0.00019758
0.000180068
0.00015429
0.000118887
7.84251e-05
4.97606e-05
3.65748e-05
2.93527e-05
2.968e-05
3.68685e-05
5.04363e-05
7.95154e-05
0.000120513
0.000155884
0.000181479
0.000198765
0.000209989
0.000217024
0.000221276
0.000223742
0.000225103
0.000225798
0.000226086
0.000226087
0.0002258
0.000225106
0.000223746
0.00022128
0.000217028
0.000209991
0.000198767
0.000181482
0.000155893
0.000120533
7.95212e-05
5.04451e-05
3.6872e-05
2.96775e-05
2.96807e-05
3.68672e-05
5.04342e-05
7.95e-05
0.000120497
0.000155875
0.000181474
0.000198762
0.000209985
0.000217021
0.000221272
0.000223738
0.000225098
0.000225793
0.000226081
0.000226081
0.000225793
0.000225099
0.000223738
0.000221271
0.000217018
0.00020998
0.000198753
0.000181463
0.000155864
0.000120491
7.94921e-05
5.04375e-05
3.68679e-05
2.968e-05
2.93594e-05
3.65719e-05
4.9737e-05
7.8354e-05
0.000118793
0.000154239
0.00018004
0.000197559
0.000209005
0.000216236
0.00022065
0.000223241
0.000224693
0.000225446
0.000225762
0.000225762
0.000225445
0.000224691
0.000223239
0.000220645
0.000216229
0.000208994
0.000197543
0.000180016
0.000154209
0.000118762
7.83338e-05
4.97375e-05
3.65792e-05
2.93604e-05
2.87217e-05
3.60785e-05
4.83817e-05
7.60936e-05
0.000115379
0.000150923
0.000177099
0.000195058
0.000206931
0.000214541
0.00021927
0.000222109
0.000223742
0.000224613
0.000224987
0.000224987
0.000224612
0.00022374
0.000222107
0.000219265
0.000214533
0.000206918
0.000195038
0.000177067
0.000150877
0.000115321
7.60596e-05
4.83804e-05
3.60903e-05
2.87245e-05
2.77756e-05
3.53651e-05
4.64208e-05
7.27146e-05
0.000110208
0.000145816
0.000172479
0.000191039
0.000203507
0.000211652
0.000216833
0.000220033
0.000221932
0.000222979
0.00022344
0.00022344
0.000222979
0.000221932
0.000220033
0.000216833
0.00021165
0.000203499
0.000191022
0.000172446
0.000145759
0.000110123
7.26583e-05
4.64187e-05
3.53806e-05
2.77802e-05
2.65329e-05
3.44383e-05
4.39267e-05
6.82712e-05
0.00010325
0.000138742
0.000165891
0.000185136
0.000198306
0.000207097
0.000212836
0.000216489
0.000218731
0.000220008
0.000220584
0.000220584
0.000220009
0.000218735
0.000216495
0.000212845
0.000207106
0.000198311
0.000185131
0.000165865
0.000138684
0.000103149
6.82006e-05
4.39264e-05
3.44561e-05
2.65394e-05
2.50092e-05
3.32899e-05
4.08623e-05
6.2908e-05
9.45759e-05
0.000129447
0.000156907
0.000176802
0.000190682
0.000200155
0.000206505
0.000210674
0.000213319
0.00021487
0.000215586
0.000215587
0.000214873
0.000213325
0.000210687
0.000206524
0.000200179
0.000190705
0.000176815
0.000156899
0.000129401
9.44809e-05
6.2835e-05
4.08776e-05
3.33088e-05
2.50175e-05
2.32222e-05
3.18909e-05
3.74843e-05
5.69164e-05
8.45614e-05
0.000117524
0.000145004
0.000165292
0.000179715
0.000189782
0.000196719
0.000201418
0.000204497
0.000206357
0.000207233