/*--------------------------------*- C++ -*----------------------------------*\
| =========                 |                                                 |
| \\      /  F ield         | OpenFOAM: The Open Source CFD Toolbox           |
|  \\    /   O peration     | Version:  2312                                  |
|   \\  /    A nd           | Website:  www.openfoam.com                      |
|    \\/     M anipulation  |                                                 |
\*---------------------------------------------------------------------------*/
FoamFile
{
    version     2.0;
    format      ascii;
    arch        "LSB;label=32;scalar=64";
    class       surfaceScalarField;
    location    "200";
    object      phi;
}
// * * * * * * * * * * * * * * * * * * * * * * * * * * * * * * * * * * * * * //

dimensions      [1 0 -1 0 0 0 0];

oriented        oriented;

internalField   nonuniform List<scalar> 
78300
(
-4.88824e-05
0.000262494
0.00754578
0.00277531
0.00125083
0.00976303
0.00278763
0.00462246
0.0150026
0.00310415
0.00520035
0.0196081
0.0033635
0.00582649
0.0241844
0.00353021
0.00636623
0.0285114
0.00358295
0.00684655
0.0325214
0.00350494
0.00725077
0.036202
0.00328654
0.00757329
0.0395297
0.00293966
0.0078241
0.042453
0.00248588
0.00801578
0.0449328
0.00194836
0.00815803
0.0469434
0.00134969
0.0082578
0.0484669
0.000711296
0.0083206
0.0494901
5.36299e-05
0.0083504
0.0500042
-0.000603323
0.00834918
0.0500047
-0.00123957
0.00831696
0.0494916
-0.00183454
0.00825175
0.0484693
-0.00236674
0.00814977
0.0469464
-0.00281349
0.00800569
0.0449359
-0.00315196
0.0078128
0.0424559
-0.00336102
0.00756096
0.0395326
-0.00343063
0.00723915
0.0362053
-0.0033751
0.00684051
0.0325247
-0.00321397
0.0063694
0.0285138
-0.00297426
0.0058446
0.0241859
-0.00269289
0.00523434
0.0196093
-0.00273372
0.00467496
0.0150032
5.53724e-05
0.00128531
0.00976365
0.000268515
0.00754625
0.00324922
0.00431747
0.00971751
0.00550055
0.0039809
0.0179083
0.00651705
0.00716735
0.0249267
0.00674732
0.00802496
0.0307308
0.00676658
0.00858968
0.0359705
0.00664334
0.00903785
0.0408137
0.00639625
0.00941797
0.045263
0.00601454
0.00974384
0.0492936
0.0054849
0.0100117
0.0528849
0.00481131
0.0102203
0.0560119
0.00401325
0.0103752
0.0586494
0.00311592
0.0104853
0.0607788
0.00214476
0.0105588
0.0623872
0.00112448
0.0106028
0.0634655
7.9369e-05
0.0106222
0.0640072
-0.000966813
0.0106199
0.0640094
-0.00199018
0.010596
0.0634717
-0.00296663
0.0105482
0.0623971
-0.00387121
0.0104718
0.0607912
-0.00467825
0.0103606
0.0586629
-0.00536244
0.0102064
0.056025
-0.00590524
0.0100013
0.0528962
-0.00630388
0.00974108
0.0493017
-0.00657126
0.00942827
0.045267
-0.00672086
0.009067
0.0408141
-0.00673274
0.0086403
0.0359691
-0.00653936
0.00809692
0.0307297
-0.00554428
0.00724171
0.0249262
-0.00329922
0.0040194
0.0179105
0.00427247
0.00971854
0.00685386
0.0038246
0.0199056
0.00956721
0.00588916
0.0273052
0.0103925
0.00853139
0.0351379
0.0101331
0.00932206
0.0413999
0.00953459
0.00970663
0.0467111
0.00884894
0.00997237
0.0514274
0.00812606
0.0102005
0.055693
0.0073567
0.0104132
0.059536
0.00652022
0.0106053
0.0629486
0.00560387
0.0107664
0.0659134
0.00460758
0.0108915
0.0684125
0.00354075
0.0109818
0.0704307
0.00241796
0.0110419
0.0719556
0.00125621
0.0110772
0.0729782
7.3565e-05
0.0110921
0.0734924
-0.00111138
0.0110895
0.073495
-0.00228007
0.0110698
0.0729856
-0.00341423
0.0110312
0.0719671
-0.00449667
0.0109699
0.0704448
-0.00551251
0.0108814
0.0684275
-0.00645173
0.0107618
0.065927
-0.00731402
0.0106105
0.0629587
-0.00811105
0.010433
0.0595411
-0.0088619
0.0102392
0.0556926
-0.00957399
0.0100322
0.0514231
-0.0101961
0.0097859
0.0467061
-0.0104693
0.00941086
0.0413969
-0.00963808
0.00860261
0.035135
-0.00689177
0.00589609
0.0273038
0.0037425
0.0199048
0.00698718
0.00430344
0.0279063
0.0101728
0.00667782
0.0368559
0.0111233
0.00897485
0.0446438
0.0109499
0.00964542
0.0508162
0.0102975
0.00995121
0.0559953
0.00947372
0.0101306
0.0605417
0.00858864
0.010274
0.0646195
0.00766925
0.0104143
0.0682789
0.00671355
0.0105526
0.0715229
0.00571263
0.0106793
0.0743396
0.00466144
0.010785
0.0767142
0.00356135
0.0108654
0.0786328
0.0024194
0.0109208
0.0800834
0.00124662
0.010954
0.0810568
5.63182e-05
0.0109683
0.0815465
-0.00113704
0.0109662
0.0815491
-0.00231898
0.0109484
0.0810642
-0.00347581
0.0109138
0.0800945
-0.00459594
0.0108604
0.0786459
-0.00567124
0.0107861
0.0767272
-0.00669918
0.0106913
0.07435
-0.00768284
0.01058
0.0715287
-0.00862865
0.0104607
0.0682788
-0.00953644
0.0103409
0.0646139
-0.0103766
0.0102156
0.060533
-0.0110366
0.010047
0.0559864
-0.011205
0.00973645
0.0508089
-0.0102338
0.00903158
0.0446376
-0.00701779
0.00665924
0.0368511
0.00419183
0.0279052
0.00790249
0.00454882
0.0360708
0.0108646
0.00714817
0.0460496
0.0115377
0.00904443
0.0537618
0.0112706
0.00955198
0.0596184
0.0105905
0.00978175
0.0645649
0.00972726
0.00990806
0.0689379
0.00878063
0.0100043
0.0728613
0.0077917
0.0101006
0.076375
0.0067729
0.010202
0.0794844
0.0057247
0.0103017
0.0821816
0.00464421
0.0103907
0.0844544
0.00353051
0.0104624
0.0862908
0.00238667
0.0105141
0.0876794
0.00121933
0.0105463
0.0886114
3.77816e-05
0.0105609
0.0890803
-0.00114731
0.01056
0.0890827
-0.00232496
0.0105444
0.088618
-0.00348525
0.010514
0.087689
-0.00462037
0.0104682
0.0863014
-0.00572569
0.0104073
0.0844638
-0.00679963
0.0103337
0.0821873
-0.00784249
0.0102531
0.0794847
-0.00885098
0.0101722
0.0763693
-0.00980989
0.0100942
0.0728506
-0.0106765
0.0100097
0.0689247
-0.0113498
0.00988362
0.0645521
-0.0115995
0.00963628
0.0596076
-0.0109005
0.00908426
0.0537528
-0.00791356
0.00710959
0.0460448
0.00442582
0.0360711
0.00855258
0.00465088
0.044034
0.0113362
0.00727397
0.0548583
0.0117916
0.0088384
0.0623652
0.0114197
0.00921314
0.0679128
0.0107048
0.00937246
0.0726286
0.00982317
0.00945458
0.0768325
0.00885344
0.00951646
0.0806161
0.00783447
0.009582
0.0840048
0.00678466
0.00965586
0.0870005
0.00571076
0.00973331
0.0895964
0.00461376
0.0098067
0.0917822
0.00349356
0.00986906
0.0935473
0.00235157
0.00991627
0.0948816
0.00119184
0.00994709
0.095777
2.07383e-05
0.00996221
0.0962273
-0.00115396
0.00996298
0.0962292
-0.00232414
0.00995045
0.0957822
-0.00348244
0.00992522
0.0948889
-0.0046231
0.00988793
0.0935547
-0.00574231
0.00984016
0.0917875
-0.00683738
0.0097853
0.0895976
-0.00790429
0.00972822
0.0869964
-0.00893348
0.00967318
0.0839954
-0.00990475
0.00962096
0.080603
-0.0107785
0.00956265
0.0768182
-0.0114771
0.00947044
0.0726161
-0.0118264
0.00928386
0.0679038
-0.0113473
0.00885972
0.06236
-0.00854899
0.00722161
0.0548574
0.00452926
0.0440362
0.00904312
0.00460371
0.0516742
0.0116314
0.00712887
0.0631339
0.011932
0.00840783
0.0703899
0.0114885
0.00868159
0.0756677
0.0107488
0.00878337
0.0801788
0.00985833
0.00882899
0.0842249
0.00888051
0.00886302
0.0878784
0.00784982
0.00890417
0.0911535
0.00678581
0.00895597
0.0940481
0.00569832
0.00901473
0.0965546
0.00459148
0.00907381
0.0986638
0.00346672
0.00912675
0.100366
0.00232557
0.00916876
0.101652
0.00117084
0.00919761
0.102515
6.99739e-06
0.00921302
0.102948
-0.00116017
0.00921573
0.10295
-0.00232451
0.00920681
0.102518
-0.00348019
0.00918729
0.101657
-0.00462226
0.00915852
0.10037
-0.00574656
0.00912267
0.0986658
-0.00684856
0.00908296
0.0965529
-0.00792137
0.00904321
0.094042
-0.00895319
0.00900624
0.0911438
-0.00992362
0.00897174
0.0878668
-0.010799
0.00893281
0.0842141
-0.0115186
0.00886864
0.0801714
-0.0119405
0.00873314
0.0756652
-0.0116224
0.00840922
0.0703924
-0.00903011
0.00706612
0.0631402
0.00449194
0.0516774
0.00940741
0.00440722
0.0588465
0.0118193
0.00674881
0.0707743
0.0120037
0.00778576
0.0777763
0.0115139
0.00798232
0.0828182
0.0107601
0.00804107
0.0871497
0.00986767
0.0080585
0.0910521
0.00888959
0.00807103
0.0945849
0.00785648
0.00809289
0.0977554
0.00678736
0.00812684
0.100558
0.00569348
0.00816981
0.102985
0.00458084
0.00821617
0.105026
0.00345256
0.00825995
0.106673
0.00231075
0.00829643
0.107917
0.00115798
0.0083228
0.10875
-2.14815e-06
0.00833814
0.109169
-0.00116507
0.00834268
0.10917
-0.00232571
0.00833734
0.108753
-0.00347896
0.00832329
0.10792
-0.00462001
0.00830214
0.106675
-0.00574398
0.00827606
0.105027
-0.0068451
0.00824788
0.102983
-0.00791517
0.00822047
0.100553
-0.00894195
0.00819582
0.0977482
-0.00990693
0.00817361
0.0945779
-0.0107816
0.00814893
0.0910478
-0.0115162
0.00810682
0.08715
-0.0119896
0.00801164
0.082824
-0.0117962
0.00776751
0.0777869
-0.00938934
0.00667842
0.070787
0.00430851
0.0588515
0.00968508
0.00406443
0.0654099
0.0119399
0.00616353
0.0776892
0.0120338
0.00699502
0.0844526
0.011512
0.0071334
0.0892891
0.0107513
0.00716193
0.0934632
0.00986118
0.00716006
0.0972366
0.00888773
0.00715758
0.100659
0.00785796
0.00716532
0.103734
0.00678961
0.00718548
0.106455
0.0056943
0.00721555
0.108811
0.00457913
0.00725091
0.110792
0.00344849
0.00728624
0.11239
0.00230539
0.00731715
0.113597
0.0011527
0.00734068
0.114406
-6.1371e-06
0.00735548
0.114812
-0.00116701
0.00736141
0.114813
-0.00232527
0.0073591
0.114408
-0.00347603
0.00734967
0.113599
-0.00461426
0.00733462
0.112392
-0.00573455
0.00731591
0.110792
-0.00683043
0.00729584
0.108809
-0.00789348
0.00727668
0.106452
-0.00891221
0.00726
0.103732
-0.00987035
0.00724575
0.100658
-0.0107437
0.00723078
0.0972395
-0.0114897
0.00720497
0.0934712
-0.0120022
0.00714032
0.0893022
-0.0119081
0.00695975
0.0844694
-0.00966543
0.0060889
0.0777056
0.00397897
0.0654163
0.00989382
0.00358889
0.0712473
0.0120132
0.00539962
0.0837918
0.0120367
0.00605471
0.0903423
0.0114915
0.00615043
0.095004
0.0107273
0.00615994
0.0990419
0.00984199
0.00614719
0.102702
0.00887618
0.00613599
0.106026
0.0078535
0.00613483
0.109016
0.00679004
0.00614534
0.111664
0.00569698
0.00616569
0.113958
0.00458208
0.00619202
0.115887
0.00345061
0.00621996
0.117444
0.00230653
0.00624556
0.118619
0.00115334
0.00626602
0.119406
-5.25245e-06
0.0062798
0.119801
-0.00116506
0.00628647
0.119802
-0.00232142
0.00628636
0.119407
-0.00346934
0.00628035
0.11862
-0.00460352
0.00626969
0.117445
-0.00571821
0.006256
0.115888
-0.00680674
0.00624108
0.113958
-0.00786104
0.00622682
0.111664
-0.00887076
0.00621454
0.109018
-0.00982203
0.00620469
0.106031
-0.0106941
0.00619554
0.102711
-0.0114495
0.00618028
0.0990558
-0.0119929
0.00613754
0.095022
-0.0119767
0.00600657
0.0903624
-0.00987406
0.00532407
0.0838095
0.00351629
0.0712542
0.0100473
0.00299887
0.0762616
0.0120529
0.00448484
0.0890036
0.0120211
0.00498543
0.0953726
0.0114583
0.00505025
0.0998896
0.0106928
0.00504957
0.103813
0.00981344
0.00503331
0.107376
0.00885656
0.00501936
0.110616
0.0078429
0.00501419
0.113533
0.00678669
0.00501917
0.116117
0.00569845
0.0050329
0.118358
0.00458603
0.00505243
0.120244
0.00345538
0.00507426
0.121765
0.00231124
0.00509509
0.122914
0.00115786
0.00511245
0.123684
-5.28539e-07
0.00512481
0.12407
-0.00115937
0.00513152
0.12407
-0.0023138
0.0051327
0.123685
-0.00345855
0.00512889
0.122916
-0.00458809
0.00512101
0.121767
-0.00569646
0.00511028
0.120246
-0.00677715
0.00509816
0.118361
-0.00782263
0.0050861
0.116121
-0.00882388
0.00507545
0.113539
-0.00976894
0.0050669
0.110625
-0.0106398
0.00505986
0.107389
-0.0114025
0.00504986
0.10383
-0.0119699
0.00502178
0.0999099
-0.0120144
0.00492903
0.0953936
-0.0100282
0.00441143
0.0890208
0.00293842
0.0762685
0.0101567
0.00231579
0.0803711
0.0120703
0.00344831
0.093257
0.011996
0.00381018
0.0994786
0.0114197
0.0038528
0.10388
0.0106534
0.0038487
0.107712
0.00977986
0.00383436
0.111195
0.0088318
0.00382246
0.114366
0.00782748
0.0038175
0.117223
0.00677942
0.00382054
0.119756
0.00569729
0.00383056
0.121953
0.00458879
0.00384544
0.123804
0.00346028
0.00386253
0.125296
0.00231715
0.0038793
0.126424
0.00116432
0.00389369
0.127179
6.60983e-06
0.00390435
0.127558
-0.00115102
0.0039106
0.127559
-0.00230332
0.00391226
0.12718
-0.0034448
0.00390962
0.126426
-0.00456974
0.00390325
0.125299
-0.00567213
0.00389396
0.123807
-0.00674565
0.00388282
0.121958
-0.00778341
0.00387102
0.119762
-0.00877743
0.00385979
0.117232
-0.00971736
0.00385008
0.114378
-0.0105872
0.00384202
0.11121
-0.0113559
0.00383319
0.10773
-0.0119416
0.0038136
0.103901
-0.012032
0.00375003
0.0994984
-0.0101388
0.0033796
0.0932727
0.0022667
0.0803777
0.0102311
0.00156279
0.0835102
0.0120746
0.00232058
0.0964963
0.011969
0.00255443
0.102606
0.0113825
0.00258087
0.106922
0.0106157
0.00257797
0.110684
0.00974683
0.0025693
0.114107
0.00880626
0.00256274
0.117225
0.00781018
0.0025611
0.120037
0.00676973
0.00256495
0.12253
0.00569371
0.00257361
0.124694
0.00458963
0.00258565
0.126517
0.00346399
0.00259926
0.127989
0.00232266
0.00261265
0.1291
0.00117109
0.00262433
0.129844
1.45874e-05
0.0026332
0.130218
-0.00114148
0.00263861
0.130218
-0.0022916
0.00264026
0.129846
-0.00343009
0.00263813
0.129102
-0.00455107
0.00263245
0.127991
-0.00564858
0.00262364
0.126521
-0.00671648
0.00261237
0.1247
-0.00774837
0.00259957
0.122538
-0.00873702
0.00258628
0.120046
-0.00967323
0.00257362
0.117238
-0.0105424
0.00256225
0.114122
-0.0113155
0.00255146
0.110701
-0.0119144
0.00253566
0.10694
-0.0120377
0.00249451
0.102624
-0.0102146
0.00225874
0.0965097
0.00152441
0.083516
0.010277
0.000763508
0.0856299
0.012073
0.00113287
0.098679
0.0119464
0.00124529
0.104714
0.011353
0.0012592
0.108972
0.0105855
0.00126028
0.112688
0.00971991
0.00125942
0.116071
0.00878462
0.00126017
0.119154
0.00779461
0.00126368
0.121934
0.00676001
0.00127006
0.124401
0.005689
0.00127889
0.126543
0.00458882
0.0012893
0.128348
0.00346607
0.0013003
0.129804
0.00232687
0.00131084
0.130905
0.00117701
0.00132003
0.131642
2.2106e-05
0.00132713
0.132012
-0.00113224
0.0013316
0.132012
-0.00228036
0.00133305
0.131643
-0.00341645
0.00133122
0.130907
-0.00453463
0.00132596
0.129807
-0.00562892
0.0013173
0.128352
-0.00669332
0.00130551
0.126549
-0.00772168
0.00129114
0.124409
-0.00870724
0.00127507
0.121944
-0.00964139
0.0012584
0.119166
-0.0105105
0.0012423
0.116085
-0.0112865
0.00122741
0.112703
-0.0118937
0.00121224
0.108988
-0.0120384
0.00118884
0.104728
-0.0102619
0.00107959
0.09869
0.000735404
0.0856347
0.0102987
-5.81121e-05
0.0866973
0.0120703
-8.35422e-05
0.0997767
0.0119328
-8.93179e-05
0.105774
0.0113356
-8.62916e-05
0.110003
0.0105677
-8.01018e-05
0.113697
0.00970343
-7.23192e-05
0.11706
0.00877075
-6.35762e-05
0.120125
0.00778393
-5.42719e-05
0.122889
0.00675256
-4.47093e-05
0.125343
0.00568456
-3.51797e-05
0.127474
0.004587
-2.59304e-05
0.129269
0.00346651
-1.72358e-05
0.130718
0.00232931
-9.34413e-06
0.131813
0.00118129
-2.54317e-06
0.132547
2.81717e-05
2.84999e-06
0.132915
-0.00112444
6.46516e-06
0.132915
-0.00227087
7.85976e-06
0.132548
-0.0034054
6.54453e-06
0.131815
-0.00452214
2.00273e-06
0.130721
-0.00561518
-6.17599e-06
0.129273
-0.00667851
-1.82048e-05
0.127479
-0.00770599
-3.39458e-05
0.12535
-0.00869093
-5.28057e-05
0.122897
-0.00962489
-7.37192e-05
0.120134
-0.0104945
-9.51534e-05
0.117071
-0.0112722
-0.00011522
0.113709
-0.0118834
-0.000131509
0.110016
-0.0120382
-0.000139766
0.105785
-0.0102849
-0.000127019
0.0997851
-7.61866e-05
0.086701
0.0102981
-0.000878097
0.0866962
0.0120688
-0.00129727
0.0997749
0.0119306
-0.00142112
0.105772
0.0113329
-0.00142916
0.110001
0.0105645
-0.00141821
0.113695
0.00969982
-0.0014022
0.117058
0.00876685
-0.00138593
0.120124
0.00777992
-0.0013713
0.122889
0.00674872
-0.00135905
0.125343
0.00568121
-0.00134924
0.127473
0.00458453
-0.00134157
0.129269
0.00346529
-0.00133549
0.130718
0.00232967
-0.00133049
0.131813
0.00118346
-0.00132619
0.132546
3.22052e-05
-0.00132247
0.132914
-0.00111868
-0.0013195
0.132915
-0.00226378
-0.00131773
0.132547
-0.00339753
-0.00131791
0.131814
-0.00451424
-0.00132093
0.13072
-0.00560801
-0.00132771
0.129272
-0.00667273
-0.00133901
0.127477
-0.00770206
-0.0013552
0.125348
-0.00868898
-0.00137606
0.122895
-0.0096247
-0.00140063
0.120131
-0.0104956
-0.00142706
0.117066
-0.0112739
-0.00145223
0.113704
-0.011885
-0.00146987
0.11001
-0.0120394
-0.00146358
0.10578
-0.0102855
-0.00133
0.099781
-0.000886343
0.086699
0.0102751
-0.00167236
0.0856267
0.0120685
-0.00247692
0.0986736
0.01194
-0.00272184
0.104707
0.011345
-0.00274308
0.108966
0.0105761
-0.00272919
0.112683
0.00970916
-0.00270662
0.116067
0.00877294
-0.00268445
0.119151
0.00778255
-0.00266609
0.121932
0.00674835
-0.00265266
0.1244
0.00567875
-0.002644
0.126542
0.00458112
-0.00263909
0.128346
0.00346207
-0.00263659
0.129803
0.0023276
-0.00263514
0.130903
0.00118318
-0.0026337
0.13164
3.39614e-05
-0.00263168
0.13201
-0.0011151
-0.00262905
0.13201
-0.00225899
-0.00262632
0.13164
-0.00339256
-0.00262444
0.130904
-0.00451037
-0.00262474
0.129804
-0.0056066
-0.0026287
0.128348
-0.00667499
-0.00263769
0.126545
-0.00770874
-0.0026527
0.124403
-0.00870019
-0.00267396
0.121936
-0.00963971
-0.0027007
0.119156
-0.0105128
-0.00273074
0.116073
-0.0112909
-0.00275963
0.112689
-0.0118981
-0.00277715
0.108972
-0.0120415
-0.0027547
0.104712
-0.0102636
-0.00249805
0.0986774
-0.00167091
0.0856286
0.0102277
-0.0024167
0.0835049
0.012067
-0.00359112
0.096487
0.0119584
-0.00396368
0.102595
0.0113694
-0.00400239
0.106912
0.0106001
-0.00398913
0.110676
0.00972914
-0.00396307
0.114101
0.00878683
-0.00393779
0.117221
0.00778989
-0.00391842
0.120033
0.00674984
-0.00390635
0.122528
0.0056759
-0.00390105
0.124692
0.00457582
-0.00390079
0.126515
0.00345619
-0.0039033
0.127986
0.00232268
-0.00390638
0.129097
0.00118025
-0.00390831
0.129841
3.34317e-05
-0.00390809
0.130214
-0.00111342
-0.00390553
0.130214
-0.00225593
-0.00390113
0.129841
-0.0033895
-0.00389613
0.129097
-0.00450907
-0.00389229
0.127987
-0.00560901
-0.00389165
0.126516
-0.00668289
-0.00389631
0.124694
-0.00772331
-0.0039079
0.12253
-0.00872161
-0.0039272
0.120036
-0.0096669
-0.00395363
0.117223
-0.0105431
-0.00398469
0.114104
-0.0113203
-0.00401441
0.110678
-0.0119199
-0.00402837
0.106914
-0.0120418
-0.00398562
0.102598
-0.0102169
-0.00359969
0.0964888
-0.00240524
0.0835058
0.0101516
-0.00308709
0.0803635
0.0120595
-0.00460868
0.0932438
0.0119813
-0.0051199
0.0994634
0.0114017
-0.00518296
0.103867
0.0106322
-0.00517594
0.107701
0.00975537
-0.00515097
0.111187
0.00880455
-0.00512675
0.114361
0.00779851
-0.0051101
0.11722
0.00675047
-0.00510273
0.119754
0.0056707
-0.00510367
0.121951
0.00456736
-0.00511035
0.123801
0.00344693
-0.00511955
0.125293
0.00231458
-0.00512825
0.126419
0.00117461
-0.00513412
0.127173
3.0812e-05
-0.00513582
0.127552
-0.00111322
-0.00513302
0.127552
-0.00225382
-0.00512633
0.127173
-0.00338706
-0.00511718
0.126419
-0.00450847
-0.00510771
0.125293
-0.00561268
-0.00510061
0.123801
-0.00669319
-0.00509863
0.121952
-0.00774193
-0.00510416
0.119754
-0.00874902
-0.0051185
0.11722
-0.00970178
-0.00514128
0.114361
-0.0105821
-0.00516952
0.111188
-0.0113574
-0.00519555
0.107701
-0.0119455
-0.00520015
0.103867
-0.0120351
-0.00512992
0.099463
-0.0101408
-0.00460345
0.0932434
-0.00306452
0.0803632
0.0100403
-0.00366019
0.0762517
0.0120389
-0.00549935
0.0889864
0.0120026
-0.00616589
0.0953538
0.0114359
-0.00626322
0.0998736
0.0106662
-0.00627028
0.103801
0.00978228
-0.00625266
0.107368
0.00882115
-0.00623481
0.110611
0.00780443
-0.00622545
0.113531
0.00674736
-0.00622668
0.116116
0.0056613
-0.00623696
0.118356
0.00455477
-0.00625295
0.120241
0.00343395
-0.0062705
0.121761
0.00230337
-0.00628581
0.122907
0.00116652
-0.00629608
0.123675
2.64042e-05
-0.00629976
0.12406
-0.00111408
-0.00629651
0.12406
-0.00225201
-0.00628699
0.123675
-0.00338421
-0.00627281
0.122907
-0.00450685
-0.00625647
0.12176
-0.00561512
-0.00624111
0.120241
-0.00670254
-0.00623024
0.118356
-0.00776045
-0.00622694
0.116116
-0.00877758
-0.00623304
0.11353
-0.00973915
-0.00624819
0.110611
-0.0106243
-0.00626875
0.107367
-0.0113969
-0.00628498
0.103799
-0.0119691
-0.0062721
0.0998708
-0.0120145
-0.00616365
0.0953507
-0.0100284
-0.00547893
0.0889838
-0.0036241
0.07625
0.00988474
-0.0041145
0.0712351
0.0119964
-0.00623507
0.0837713
0.0120149
-0.00708033
0.0903213
0.0114654
-0.00722529
0.0949875
0.0106958
-0.00725616
0.0990312
0.00980416
-0.00725376
0.102696
0.00883203
-0.00724836
0.106024
0.00780435
-0.00725119
0.109017
0.00673851
-0.00726486
0.111664
0.00564697
-0.00728753
0.113957
0.00453826
-0.00731495
0.115884
0.00341803
-0.00734216
0.117438
0.00228994
-0.00736475
0.11861
0.00115671
-0.00737965
0.119395
2.0702e-05
-0.00738532
0.119789
-0.00111581
-0.00738143
0.119789
-0.00225044
-0.00736878
0.119395
-0.00338064
-0.00734905
0.11861
-0.00450344
-0.00732486
0.117437
-0.0056147
-0.00729981
0.115883
-0.00670829
-0.00727802
0.113956
-0.00777526
-0.00726326
0.111663
-0.00880291
-0.00725795
0.109016
-0.00977402
-0.00726152
0.106023
-0.0106643
-0.00726916
0.102694
-0.0114333
-0.00726816
0.0990279
-0.0119844
-0.00722785
0.0949827
-0.0119714
-0.00706678
0.0903156
-0.00987095
-0.00619835
0.0837662
-0.00406131
0.0712318
0.00967396
-0.00443224
0.0653959
0.011921
-0.00679033
0.077667
0.0120102
-0.00784562
0.0844318
0.0114834
-0.00805504
0.0892749
0.0107156
-0.00812147
0.0934564
0.00981664
-0.0081426
0.0972359
0.00883399
-0.00815544
0.100662
0.0077965
-0.00817497
0.103738
0.00672376
-0.00820466
0.106458
0.00562883
-0.0082423
0.108811
0.00451979
-0.00828279
0.110789
0.00340137
-0.00832051
0.112383
0.0022763
-0.00835064
0.113586
0.00114659
-0.00837013
0.114391
1.42121e-05
-0.00837762
0.114795
-0.00111866
-0.00837306
0.114795
-0.00224988
-0.00835723
0.114391
-0.00337734
-0.00833176
0.113585
-0.00449881
-0.00829924
0.112382
-0.00561115
-0.00826342
0.110788
-0.00670913
-0.00822895
0.10881
-0.00778382
-0.0082005
0.106457
-0.00882161
-0.00818089
0.103738
-0.00980246
-0.00816955
0.100661
-0.0106979
-0.00815977
0.0972341
-0.0114614
-0.00813434
0.093453
-0.011985
-0.00805512
0.0892692
-0.0118965
-0.00782365
0.0844242
-0.00965804
-0.00673749
0.0776594
-0.00435807
0.0653909
0.00939508
-0.00460166
0.0588317
0.0118003
-0.00714236
0.070753
0.0119807
-0.00844652
0.0777592
0.0114846
-0.00873998
0.0828101
0.0107211
-0.00885453
0.0871502
0.00981612
-0.00890694
0.0910585
0.00882503
-0.00894331
0.0945938
0.00778081
-0.00898341
0.0977637
0.00670482
-0.00903216
0.100564
0.00560992
-0.00908684
0.102986
0.00450312
-0.00914163
0.105022
0.00338771
-0.00919018
0.106663
0.00226548
-0.00922767
0.107902
0.00113801
-0.00925136
0.108732
7.52011e-06
-0.00926048
0.109148
-0.00112341
-0.00925525
0.109147
-0.00225215
-0.00923654
0.108731
-0.00337661
-0.00920561
0.107901
-0.00449515
-0.00916467
0.106662
-0.00560587
-0.00911732
0.105021
-0.00670492
-0.00906869
0.102985
-0.00778449
-0.00902432
0.100563
-0.00883052
-0.00898795
0.0977641
-0.00982066
-0.00895897
0.0945944
-0.0107214
-0.00892838
0.0910585
-0.0114778
-0.0088727
0.0871483
-0.0119654
-0.0087434
0.0828051
-0.0117796
-0.00842159
0.0777507
-0.00937809
-0.00707625
0.0707434
-0.0045037
0.0588249
0.0090317
-0.00462341
0.0516602
0.0116159
-0.00726605
0.0631166
0.011913
-0.00886394
0.0703803
0.011461
-0.00926484
0.0756695
0.010707
-0.00944001
0.0801895
0.00979903
-0.00953016
0.0842401
0.00880337
-0.00959428
0.0878938
0.00775774
-0.00965845
0.0911657
0.00668425
-0.00972922
0.0940547
0.00559441
-0.00980308
0.0965546
0.00449305
-0.00987315
0.0986569
0.00338163
-0.00993252
0.100353
0.00226102
-0.00997673
0.101633
0.00113311
-0.010004
0.102491
1.0256e-06
-0.0100144
0.102921
-0.00113123
-0.0100088
0.102921
-0.00225982
-0.00998773
0.10249
-0.00338183
-0.00995207
0.101632
-0.00449579
-0.00990311
0.100351
-0.00560105
-0.00984376
0.0986557
-0.00669598
-0.00977929
0.0965541
-0.00777512
-0.00971621
0.0940552
-0.00882546
-0.00966004
0.0911675
-0.0098232
-0.00961075
0.0878967
-0.0107289
-0.00955709
0.0842432
-0.0114751
-0.00946758
0.0801912
-0.0119149
-0.0092785
0.0756675
-0.0116051
-0.00884455
0.0703731
-0.00901684
-0.00719357
0.0631061
-0.00450271
0.0516523
0.00854501
-0.00450283
0.0440231
0.0113287
-0.00713037
0.0548483
0.0117801
-0.0090675
0.0623667
0.0113952
-0.00960478
0.0679269
0.0106598
-0.00985076
0.0726505
0.00975425
-0.00998328
0.0768561
0.0087613
-0.0100794
0.0806366
0.00772361
-0.0101724
0.0840189
0.00666212
-0.0102697
0.0870066
0.00558503
-0.0103659
0.089594
0.00449347
-0.0104522
0.0917718
0.0033869
-0.010522
0.0935298
0.00226591
-0.010572
0.0948581
0.00113353
-0.0106021
0.0957485
-4.97866e-06
-0.0106135
0.096195
-0.00114328
-0.0106077
0.0961947
-0.00227522
-0.0105852
0.0957474
-0.00339607
-0.0105459
0.0948565
-0.00450354
-0.0104899
0.093528
-0.00559779
-0.0104185
0.0917701
-0.00668
-0.0103361
0.0895931
-0.00774873
-0.0102501
0.0870072
-0.00879475
-0.0101685
0.0840217
-0.00979494
-0.0100939
0.0806419
-0.0107036
-0.0100143
0.0768633
-0.011435
-0.00988954
0.0726577
-0.0118075
-0.00963485
0.0679309
-0.0113372
-0.00906377
0.0623635
-0.00853853
-0.00706392
0.0548394
-0.00436833
0.0440157
0.00790301
-0.00425184
0.0360646
0.0108678
-0.00666251
0.0460494
0.0115346
-0.00900517
0.0537754
0.0112477
-0.00970471
0.0596446
0.0105391
-0.0100228
0.064596
0.00964486
-0.0102037
0.0689668
0.00867011
-0.0103429
0.0728832
0.00765969
-0.0104772
0.0763875
0.00662835
-0.0106102
0.0794869
0.00557708
-0.0107335
0.0821746
0.0045025
-0.0108372
0.0844392
0.00340273
-0.0109167
0.0862686
0.00227965
-0.0109715
0.0876514
0.00113913
-0.0110038
0.0885786
-1.04544e-05
-0.0110161
0.0890436
-0.00115932
-0.0110105
0.0890431
-0.00229792
-0.0109875
0.0885772
-0.00341846
-0.0109458
0.0876493
-0.0045163
-0.0108839
0.0862659
-0.00559079
-0.0108008
0.0844365
-0.00664517
-0.0106985
0.0821726
-0.00768365
-0.0105831
0.0794866
-0.00870515
-0.0104647
0.0763901
-0.0096928
-0.010351
0.0728898
-0.0105985
-0.010234
0.0689776
-0.011312
-0.0100701
0.0646094
-0.0115921
-0.00975337
0.0596563
-0.0109051
-0.00902566
0.0537794
-0.00791404
-0.00661827
0.0460453
-0.00412293
0.0360592
0.0069951
-0.00378063
0.027906
0.0101857
-0.00588838
0.0368654
0.0111237
-0.00857175
0.0446664
0.0109219
-0.00938564
0.0508488
0.0102327
-0.00977515
0.0560292
0.00937204
-0.0100362
0.0605693
0.00845593
-0.0102559
0.064637
0.00751488
-0.0104608
0.0682853
0.00654784
-0.0106476
0.0715189
0.00554546
-0.010806
0.0743265
0.00450131
-0.0109302
0.0766937
0.0034151
-0.0110205
0.0786063
0.00229296
-0.011081
0.080052
0.0011451
-0.0111162
0.0810212
-1.55593e-05
-0.0111302
0.0815072
-0.00117487
-0.0111254
0.0815067
-0.0023191
-0.0111019
0.0810196
-0.00343592
-0.011058
0.0800493
-0.00451619
-0.01099
0.0786027
-0.00555569
-0.0108943
0.0766895
-0.00655655
-0.0107684
0.0743224
-0.00752734
-0.0106139
0.071516
-0.00847849
-0.0104381
0.0682852
-0.00941095
-0.0102523
0.0646416
-0.0102912
-0.0100577
0.0605801
-0.0109973
-0.00982211
0.0560457
-0.0112044
-0.00944693
0.0508667
-0.0102512
-0.00861971
0.0446787
-0.00703007
-0.00587763
0.0368684
-0.00368474
0.027904
0.00686884
-0.00429356
0.0199107
0.00958063
-0.00399428
0.0273209
0.0103841
-0.00721103
0.035163
0.0100875
-0.0080806
0.0414292
0.00944681
-0.00864174
0.0467368
0.00872301
-0.00908053
0.0514444
0.00797119
-0.00945093
0.0556996
0.00718407
-0.00977016
0.0595326
0.00634041
-0.0100347
0.0629365
0.00542547
-0.0102423
0.0658944
0.00443726
-0.0103977
0.0683883
0.00338362
-0.0105088
0.0704023
0.00227809
-0.0105833
0.0719238
0.00113731
-0.0106278
0.0729432
-2.03989e-05
-0.0106472
0.0734543
-0.0011764
-0.0106436
0.0734538
-0.00231179
-0.0106174
0.0729417
-0.00340901
-0.0105659
0.0719211
-0.00445225
-0.0104848
0.0703984
-0.00542951
-0.0103678
0.0683833
-0.00633513
-0.0102082
0.0658885
-0.00717417
-0.00999967
0.0629305
-0.00796411
-0.00974008
0.0595279
-0.00872843
-0.00943368
0.0556984
-0.00947401
-0.00908501
0.0514491
-0.0101419
-0.00867346
0.0467488
-0.01046
-0.00813778
0.0414466
-0.0096553
-0.00727585
0.0351786
-0.0069091
-0.00402728
0.0273302
-0.00423992
0.0199127
0.00326645
-0.000261028
0.00972272
0.00551035
-0.00127423
0.0179257
0.00649136
-0.00464957
0.0249456
0.0066773
-0.00522767
0.0307468
0.00665899
-0.00585065
0.0359802
0.00650539
-0.00638037
0.0408155
0.00623925
-0.00685487
0.0452574
0.00584836
-0.00725615
0.0492819
0.00531758
-0.00757854
0.0528683
0.00464826
-0.00783027
0.0559918
0.00385773
-0.00802318
0.0586267
0.00297029
-0.0081668
0.0607542
0.00201082
-0.00826765
0.0623609
0.00100421
-0.00833113
0.0634373
-2.48549e-05
-0.00836109
0.0639769
-0.00105174
-0.00835947
0.0639767
-0.00205196
-0.0083262
0.0634364
-0.00300087
-0.00825912
0.0623592
-0.00387393
-0.00815434
0.0607513
-0.0046469
-0.00800645
0.0586224
-0.00529717
-0.00780936
0.0559859
-0.00580997
-0.00755438
0.0528612
-0.00618823
-0.00723134
0.0492745
-0.00645126
-0.00683465
0.0452513
-0.00661575
-0.0063712
0.0408128
-0.006661
-0.00585778
0.0359825
-0.0065095
-0.00525826
0.0307547
-0.00555147
-0.00470264
0.0249568
-0.00332316
-0.00130399
0.017938
-0.000267984
0.00972661
-5.3217e-05
0.00755158
0.00274216
0.00976844
0.00272329
0.0150067
0.00301108
0.0196095
0.0032482
0.0241824
0.00340608
0.0285061
0.00345871
0.0325132
0.00338581
0.0361916
0.00317428
0.0395175
0.0028344
0.0424398
0.00238707
0.044919
0.00185513
0.0469291
0.00126144
0.0484521
0.000627865
0.0494748
-2.44907e-05
0.0499882
-0.00067493
0.0499879
-0.00130267
0.0494739
-0.00188622
0.0484505
-0.0024032
0.0469266
-0.00283019
0.0449154
-0.00314434
0.042435
-0.00332599
0.0395118
-0.00336805
0.0361855
-0.00328949
0.0325075
-0.00311745
0.0285011
-0.00288413
0.0241791
-0.00262602
0.0196086
-0.00269922
0.0150079
6.35465e-05
0.0097713
0.00755495
0.000794909
0.000398834
0.00635203
0.0013294
0.000703334
0.00852521
0.00134058
0.00162356
0.0133678
0.00141833
0.00199879
0.0175315
0.00144838
0.00253419
0.0216201
0.0014471
0.00305241
0.0254603
0.00140731
0.00354516
0.0290161
0.00132925
0.00399714
0.032283
0.00121296
0.00440319
0.0352427
0.00105948
0.00476057
0.0378459
0.000871502
0.00506639
0.0400544
0.00065309
0.0053178
0.0418441
0.000410132
0.00551084
0.043199
0.000150587
0.0056417
0.044108
-0.000116037
0.00570779
0.0445631
-0.000379535
0.00570786
0.0445604
-0.000630103
0.00564217
0.0441
-0.000859412
0.00551242
0.0431862
-0.00106131
0.00532162
0.0418267
-0.00123211
0.00507378
0.0400329
-0.00137029
0.00477264
0.0378214
-0.00147601
0.00442077
0.0352176
-0.00154887
0.00401898
0.0322592
-0.00158817
0.00356863
0.0289953
-0.00158877
0.00307046
0.025444
-0.00155185
0.00253926
0.0216097
-0.00144934
0.00197816
0.0175286
-0.00138214
0.0015641
0.0133719
-0.000806178
0.000654167
0.00853352
0.000377985
0.00636208
0.000801075
0.000930046
0.00838522