/*--------------------------------*- C++ -*----------------------------------*\
| =========                 |                                                 |
| \\      /  F ield         | OpenFOAM: The Open Source CFD Toolbox           |
|  \\    /   O peration     | Version:  2312                                  |
|   \\  /    A nd           | Website:  www.openfoam.com                      |
|    \\/     M anipulation  |                                                 |
\*---------------------------------------------------------------------------*/
FoamFile
{
    version     2.0;
    format      ascii;
    arch        "LSB;label=32;scalar=64";
    class       volScalarField;
    location    "200";
    object      T;
}
// * * * * * * * * * * * * * * * * * * * * * * * * * * * * * * * * * * * * * //

dimensions      [0 0 0 1 0 0 0];

internalField   nonuniform List<scalar> 
27000
(
426.446
355.957
347.341
343.164
342.451
342.528
342.736
342.968
343.201
343.404
343.574
343.709
343.811
343.879
343.914
343.915
343.884
343.82
343.721
343.589
343.422
343.218
342.981
342.742
342.522
342.427
343.112
347.243
355.802
426.112
335.76
354.588
348.611
346.971
346.647
346.807
347.02
347.196
347.337
347.449
347.537
347.605
347.656
347.69
347.709
347.712
347.7
347.672
347.626
347.561
347.472
347.355
347.204
347.01
346.773
346.582
346.869
348.478
354.446
335.783
342.284
345.624
348.267
348.082
347.933
347.942
348.01
348.075
348.125
348.163
348.193
348.216
348.234
348.247
348.256
348.259
348.256
348.248
348.233
348.209
348.176
348.13
348.067
347.984
347.896
347.867
348.003
348.193
345.602
342.313
342.231
346.109
347.772
348.129
348.162
348.173
348.202
348.235
348.264
348.285
348.302
348.314
348.324
348.331
348.336
348.338
348.338
348.333
348.324
348.31
348.289
348.259
348.219
348.173
348.132
348.114
348.085
347.747
346.115
342.253
342.662
346.636
347.885
348.151
348.219
348.241
348.259
348.278
348.296
348.311
348.322
348.33
348.336
348.341
348.345
348.346
348.346
348.342
348.336
348.325
348.309
348.287
348.261
348.234
348.212
348.192
348.132
347.883
346.654
342.683
343.091
347.003
348.005
348.201
348.254
348.272
348.284
348.295
348.306
348.315
348.323
348.329
348.333
348.337
348.339
348.34
348.339
348.337
348.331
348.323
348.312
348.297
348.281
348.267
348.256
348.243
348.2
348.018
347.03
343.115
343.494
347.262
348.088
348.242
348.281
348.293
348.299
348.304
348.31
348.315
348.32
348.324
348.327
348.33
348.331
348.332
348.332
348.329
348.325
348.32
348.312
348.304
348.296
348.29
348.287
348.282
348.252
348.11
347.294
343.519
343.843
347.454
348.147
348.272
348.3
348.307
348.308
348.31
348.312
348.315
348.318
348.32
348.322
348.324
348.325
348.326
348.325
348.324
348.321
348.317
348.313
348.309
348.307
348.307
348.309
348.309
348.289
348.174
347.487
343.866
344.141
347.599
348.192
348.293
348.314
348.316
348.315
348.314
348.314
348.315
348.316
348.318
348.319
348.321
348.321
348.322
348.321
348.32
348.319
348.317
348.315
348.314
348.315
348.319
348.325
348.328
348.314
348.22
347.631
344.16
344.387
347.71
348.227
348.31
348.324
348.323
348.319
348.317
348.315
348.315
348.316
348.317
348.318
348.318
348.319
348.319
348.319
348.319
348.318
348.317
348.317
348.318
348.321
348.327
348.334
348.34
348.331
348.253
347.738
344.404
344.581
347.793
348.253
348.322
348.331
348.327
348.322
348.318
348.316
348.315
348.316
348.316
348.317
348.318
348.318
348.318
348.318
348.318
348.318
348.318
348.318
348.321
348.325
348.331
348.34
348.347
348.342
348.276
347.818
344.596
344.73
347.854
348.272
348.331
348.336
348.33
348.324
348.32
348.317
348.316
348.316
348.316
348.317
348.317
348.318
348.318
348.318
348.318
348.318
348.318
348.32
348.322
348.327
348.334
348.343
348.351
348.348
348.291
347.874
344.742
344.836
347.895
348.285
348.337
348.339
348.333
348.326
348.321
348.318
348.317
348.316
348.317
348.317
348.318
348.318
348.318
348.318
348.318
348.318
348.319
348.32
348.323
348.328
348.335
348.344
348.352
348.352
348.301
347.912
344.846
344.905
347.922
348.293
348.34
348.341
348.334
348.327
348.322
348.319
348.317
348.317
348.317
348.317
348.318
348.318
348.318
348.319
348.319
348.319
348.319
348.321
348.323
348.328
348.335
348.343
348.352
348.353
348.306
347.935
344.913
344.938
347.935
348.297
348.343
348.342
348.335
348.327
348.322
348.319
348.317
348.317
348.317
348.318
348.318
348.318
348.319
348.319
348.319
348.319
348.319
348.321
348.323
348.328
348.334
348.343
348.352
348.353
348.308
347.945
344.945
344.938
347.935
348.298
348.343
348.343
348.335
348.328
348.323
348.319
348.318
348.317
348.317
348.318
348.318
348.318
348.319
348.319
348.319
348.319
348.319
348.321
348.323
348.327
348.334
348.342
348.351
348.351
348.306
347.944
344.944
344.905
347.923
348.295
348.342
348.343
348.335
348.328
348.323
348.319
348.318
348.317
348.317
348.318
348.318
348.318
348.319
348.319
348.319
348.319
348.319
348.32
348.322
348.327
348.333
348.341
348.349
348.349
348.302
347.93
344.91
344.837
347.898
348.288
348.339
348.342
348.335
348.328
348.322
348.319
348.317
348.317
348.317
348.318
348.318
348.318
348.318
348.318
348.318
348.318
348.319
348.32
348.322
348.326
348.332
348.34
348.348
348.346
348.294
347.904
344.841
344.731
347.857
348.275
348.334
348.339
348.333
348.326
348.321
348.318
348.317
348.316
348.317
348.317
348.318
348.318
348.318
348.318
348.318
348.318
348.318
348.319
348.321
348.324
348.33
348.338
348.344
348.341
348.282
347.864
344.735
344.583
347.797
348.257
348.326
348.334
348.33
348.324
348.32
348.317
348.316
348.316
348.316
348.317
348.318
348.318
348.319
348.318
348.318
348.318
348.317
348.318
348.319
348.322
348.328
348.334
348.34
348.333
348.265
347.805
344.588
344.389
347.714
348.231
348.314
348.326
348.324
348.32
348.317
348.315
348.315
348.315
348.316
348.318
348.319
348.319
348.319
348.319
348.319
348.318
348.317
348.316
348.317
348.319
348.323
348.329
348.332
348.32
348.239
347.723
344.394
344.143
347.603
348.196
348.296
348.315
348.316
348.314
348.313
348.312
348.314
348.315
348.317
348.319
348.32
348.321
348.321
348.321
348.32
348.318
348.317
348.315
348.314
348.314
348.316
348.32
348.32
348.303
348.205
347.613
344.15
343.846
347.457
348.149
348.272
348.299
348.305
348.305
348.307
348.309
348.312
348.316
348.319
348.321
348.323
348.324
348.325
348.324
348.323
348.32
348.317
348.313
348.31
348.307
348.306
348.306
348.302
348.278
348.158
347.468
343.854
343.496
347.262
348.087
348.24
348.277
348.288
348.293
348.298
348.305
348.311
348.317
348.322
348.325
348.328
348.329
348.33
348.329
348.327
348.324
348.319
348.312
348.305
348.297
348.291
348.286
348.277
348.243
348.094
347.274
343.505
343.092
347.001
348.001
348.195
348.246
348.263
348.275
348.286
348.298
348.309
348.318
348.325
348.33
348.334
348.336
348.336
348.336
348.333
348.328
348.321
348.311
348.298
348.284
348.271
348.259
348.242
348.194
348.004
347.01
343.1
342.66
346.63
347.876
348.14
348.206
348.227
348.245
348.266
348.286
348.303
348.316
348.325
348.332
348.337
348.34
348.341
348.34
348.336
348.33
348.32
348.306
348.287
348.264
348.239
348.218
348.197
348.132
347.873
346.634
342.667
342.226
346.099
347.759
348.113
348.143
348.154
348.184
348.221
348.252
348.276
348.295
348.308
348.318
348.325
348.329
348.331
348.329
348.324
348.315
348.302
348.282
348.255
348.219
348.177
348.141
348.126
348.095
347.747
346.096
342.231
342.276
345.611
348.248
348.058
347.907
347.918
347.989
348.058
348.113
348.154
348.185
348.21
348.227
348.24
348.246
348.248
348.244
348.234
348.218
348.195
348.164
348.12
348.061
347.984
347.903
347.882
348.026
348.216
345.597
342.284
335.75
354.561
348.583
346.939
346.617
346.782
347.001
347.182
347.326
347.44
347.529
347.597
347.647
347.68
347.697
347.698
347.684
347.654
347.607
347.541
347.454
347.339
347.192
347.003
346.772
346.591
346.896
348.527
354.492
335.75
426.361
355.912
347.304
343.135
342.429
342.513
342.726
342.96
343.194
343.398
343.567
343.702
343.804
343.87
343.904
343.905
343.873
343.807
343.708
343.575
343.407
343.205
342.971
342.733
342.515
342.421
343.11
347.257
355.836
426.194
447.879
363.492
347.664
339.102
336.455
335.826
335.788
335.938
336.161
336.388
336.586
336.744
336.862
336.941
336.979
336.978
336.936
336.855
336.734
336.571
336.369
336.141
335.922
335.778
335.826
336.471
339.141
347.725
363.564
447.994
332.213
361.308
352.263
346.919
344.022
343.109
343.068
343.296
343.572
343.827
344.039
344.203
344.323
344.401
344.439
344.437
344.397
344.318
344.196
344.029
343.815
343.559
343.286
343.065
343.118
344.048
346.957
352.301
361.338
332.154
336.878
343.577
349.325
348.73
347.429
346.682
346.439
346.435
346.51
346.599
346.679
346.744
346.793
346.825
346.841
346.84
346.823
346.79
346.74
346.675
346.594
346.505
346.431
346.438
346.686
347.437
348.736
349.323
343.556
336.849
335.866
341.712
346.214
347.79
347.862
347.63
347.469
347.409
347.406
347.424
347.448
347.47
347.488
347.501
347.507
347.507
347.5
347.487
347.469
347.446
347.422
347.402
347.405
347.464
347.625
347.854
347.779
346.196
341.69
335.849
336.22
342.099
345.79
347.264
347.718
347.784
347.752
347.72
347.706
347.705
347.71
347.717
347.723
347.729
347.732
347.732
347.729
347.723
347.716
347.709
347.703
347.703
347.715
347.745
347.774
347.705
347.248
345.772
342.078
336.204
336.57
342.861
346.061
347.212
347.639
347.785
347.823
347.825
347.821
347.819
347.82
347.822
347.824
347.827
347.828
347.828
347.827
347.825
347.822
347.819
347.817
347.817
347.819
347.815
347.776
347.628
347.2
346.045
342.839
336.551
336.961
343.487
346.354
347.29
347.638
347.783
347.842
347.863
347.87
347.872
347.873
347.874
347.875
347.876
347.877
347.877
347.877
347.876
347.874
347.872
347.87
347.867
347.858
347.835
347.776
347.631
347.282
346.342
343.468
336.939
337.37
343.976
346.578
347.374
347.664
347.791
347.851
347.88
347.893
347.898
347.901
347.902
347.903
347.904
347.905
347.905
347.905
347.904
347.903
347.901
347.897
347.89
347.877
347.848
347.787
347.66
347.369
346.569
343.96
337.353
337.746
344.362
346.747
347.444
347.693
347.805
347.861
347.89
347.905
347.913
347.917
347.919
347.92
347.921
347.922
347.922
347.922
347.921
347.92
347.917
347.913
347.904
347.889
347.86
347.804
347.692
347.442
346.742
344.35
337.733
338.071
344.665
346.879
347.502
347.721
347.82
347.87
347.898
347.913
347.922
347.926
347.929
347.931
347.932
347.933
347.933
347.933
347.932
347.93
347.927
347.922
347.914
347.899
347.871
347.821
347.723
347.502
346.876
344.657
338.06
338.343
344.901
346.981
347.549
347.746
347.834
347.879
347.904
347.919
347.928
347.933
347.936
347.939
347.94
347.941
347.941
347.941
347.94
347.938
347.935
347.929
347.921
347.907
347.882
347.837
347.749
347.551
346.98
344.895
338.335
338.561
345.08
347.058
347.587
347.768
347.847
347.888
347.91
347.924
347.932
347.938
347.941
347.944
347.946
347.946
347.947
347.946
347.945
347.943
347.94
347.934
347.926
347.913
347.891
347.851
347.771
347.589
347.058
345.075
338.555
338.724
345.208
347.113
347.614
347.784
347.857
347.894
347.915
347.928
347.936
347.941
347.945
347.948
347.949
347.95
347.951
347.95
347.949
347.946
347.943
347.938
347.93
347.918
347.898
347.861
347.787
347.617
347.114
345.205
338.72
338.832
345.29
347.148
347.632
347.794
347.864
347.899
347.918
347.93
347.938
347.943
347.947
347.95
347.952
347.953
347.953
347.952
347.951
347.948
347.945
347.94
347.932
347.921
347.902
347.867
347.797
347.634
347.149
345.288
338.829
338.885
345.329
347.165
347.639
347.798
347.866
347.9
347.919
347.93
347.938
347.943
347.947
347.95
347.952
347.953
347.954
347.953
347.951
347.949
347.945
347.94
347.932
347.921
347.902
347.869
347.8
347.641
347.165
345.328
338.882
338.884
345.327
347.162
347.637
347.796
347.864
347.899
347.918
347.929
347.937
347.943
347.947
347.95
347.952
347.953
347.953
347.952
347.95
347.947
347.944
347.938
347.93
347.919
347.9
347.865
347.797
347.637
347.161
345.325
338.881
338.828
345.283
347.14
347.624
347.787
347.858
347.894
347.914
347.927
347.935
347.941
347.945
347.947
347.949
347.95
347.95
347.949
347.948
347.945
347.941
347.935
347.927
347.914
347.894
347.857
347.786
347.622
347.138
345.28
338.825
338.717
345.195
347.099
347.601
347.772
347.848
347.887
347.909
347.923
347.932
347.937
347.941
347.944
347.945
347.946
347.946
347.945
347.943
347.941
347.937
347.931
347.922
347.908
347.885
347.846
347.77
347.598
347.095
345.191
338.714
338.551
345.062
347.038
347.568
347.752
347.835
347.879
347.903
347.918
347.928
347.933
347.936
347.938
347.939
347.94
347.94
347.939
347.938
347.936
347.932
347.926
347.917
347.901
347.876
347.831
347.748
347.563
347.032
345.056
338.546
338.329
344.878
346.955
347.527
347.729
347.821
347.87
347.898
347.914
347.923
347.928
347.93
347.932
347.932
347.932
347.932
347.931
347.931
347.929
347.926
347.921
347.911
347.894
347.866
347.815
347.722
347.518
346.946
344.869
338.323
338.054
344.637
346.85
347.478
347.703
347.807
347.862
347.892
347.909
347.917
347.921
347.922
347.922
347.922
347.921
347.921
347.921
347.921
347.92
347.919
347.915
347.906
347.889
347.857
347.801
347.695
347.467
346.837
344.624
338.044
337.726
344.33
346.717
347.421
347.678
347.796
347.857
347.888
347.904
347.91
347.912
347.911
347.909
347.908
347.907
347.906
347.907
347.908
347.908
347.909
347.907
347.9
347.884
347.852
347.789
347.669
347.408
346.701
344.312
337.713
337.348
343.944
346.55
347.357
347.656
347.79
347.854
347.884
347.895
347.898
347.896
347.893
347.89
347.888
347.886
347.886
347.886
347.888
347.89
347.893
347.894
347.892
347.881
347.851
347.784
347.647
347.344
346.532
343.921
337.331
336.938
343.46
346.335
347.283
347.642
347.793
347.855
347.875
347.877
347.873
347.868
347.863
347.859
347.856
347.854
347.853
347.854
347.856
347.859
347.864
347.87
347.875
347.873
347.853
347.79
347.636
347.273
346.317
343.435
336.917
336.55
342.843
346.055
347.222
347.66
347.812
347.849
347.846
347.834
347.822
347.814
347.808
347.804
347.802
347.8
347.799
347.799
347.8
347.803
347.809
347.818
347.832
347.846
347.851
347.814
347.66
347.217
346.042
342.821
336.53
336.207
342.095
345.805
347.297
347.763
347.832
347.794
347.75
347.722
347.708
347.701
347.699
347.699
347.699
347.699
347.698
347.696
347.693
347.692
347.694
347.702
347.72
347.752
347.801
347.843
347.774
347.303
345.802
342.082
336.191
335.863
341.727
346.256
347.859
347.941
347.704
347.526
347.446
347.422
347.424
347.435
347.447
347.459
347.467
347.47
347.469
347.462
347.451
347.438
347.424
347.415
347.417
347.447
347.537
347.725
347.967
347.882
346.269
341.728
335.856
336.884
343.618
349.418
348.851
347.547
346.776
346.502
346.469
346.521
346.593
346.661
346.718
346.761
346.79
346.804
346.802
346.785
346.753
346.706
346.647
346.578
346.509
346.465
346.512
346.806
347.594
348.902
349.46
343.634
336.879
332.189
361.454
352.432
347.083
344.15
343.192
343.114
343.314
343.572
343.815
344.019
344.179
344.296
344.373
344.41
344.408
344.368
344.288
344.167
344.002
343.795
343.551
343.298
343.112
343.216
344.208
347.169
352.523
361.548
332.172
448.32
363.745
347.857
339.233
336.531
335.865
335.804
335.941
336.156
336.379
336.574
336.731
336.849
336.927
336.966
336.965
336.923
336.842
336.722
336.561
336.361
336.135
335.921
335.79
335.866
336.562
339.308
347.978
363.906
448.612
445.509
362.26
346.647
337.64
334.483
333.51
333.275
333.276
333.357
333.448
333.532
333.603
333.657
333.693
333.71
333.708
333.687
333.648
333.591
333.52
333.437
333.347
333.27
333.277
333.527
334.521
337.708
346.757
362.417
445.874
332.144
360.29
352.3
346.519
342.638
340.913
340.439
340.513
340.771
341.055
341.306
341.507
341.654
341.749
341.794
341.79
341.739
341.638
341.486
341.284
341.034
340.756
340.511
340.457
340.96
342.72
346.637
352.447
360.448
332.193
336.134
343.305
349.46
348.934
346.948
345.462
344.838
344.762
344.909
345.103
345.275
345.407
345.498
345.554
345.578
345.573
345.541
345.478
345.382
345.249
345.082
344.899
344.772
344.875
345.531
347.047
349.051
349.573
343.38
336.154
334.012
340.205
345.315
347.609
347.724
347.209
346.829
346.692
346.704
346.772
346.843
346.899
346.936
346.956
346.964
346.96
346.946
346.92
346.88
346.827
346.763
346.709
346.715
346.874
347.276
347.805
347.69
345.374
340.232
334.011
333.969
339.763
344.041
346.513
347.405
347.506
347.406
347.329
347.309
347.325
347.352
347.375
347.39
347.398
347.4
347.397
347.391
347.38
347.365
347.345
347.326
347.32
347.353
347.444
347.554
347.456
346.555
344.06
339.761
333.958
334.128
340.263
344.198
346.339
347.212
347.486
347.533
347.522
347.513
347.516
347.525
347.535
347.542
347.545
347.546
347.544
347.541
347.536
347.53
347.524
347.52
347.524
347.541
347.559
347.514
347.235
346.349
344.189
340.245
334.113
334.293
340.877
344.729
346.523
347.214
347.473
347.559
347.58
347.583
347.585
347.589
347.593
347.596
347.597
347.597
347.596
347.595
347.593
347.591
347.589
347.589
347.591
347.591
347.571
347.483
347.216
346.512
344.703
340.851
334.277
334.468
341.432
345.197
346.732
347.282
347.491
347.571
347.6
347.609
347.611
347.613
347.614
347.614
347.614
347.613
347.613
347.612
347.612
347.612
347.613
347.613
347.612
347.604
347.574
347.489
347.271
346.709
345.163
341.401
334.45
334.649
341.902
345.537
346.89
347.348
347.517
347.583
347.609
347.618
347.62
347.62
347.619
347.617
347.616
347.616
347.615
347.615
347.616
347.617
347.619
347.619
347.617
347.608
347.578
347.506
347.33
346.861
345.501
341.872
334.63
334.823
342.292
345.78
346.996
347.394
347.537
347.593
347.614
347.621
347.621
347.619
347.617
347.615
347.613
347.612
347.612
347.612
347.613
347.615
347.618
347.619
347.618
347.609
347.584
347.522
347.373
346.967
345.745
342.264
334.805
334.979
342.605
345.953
347.067
347.423
347.549
347.598
347.616
347.621
347.62
347.617
347.613
347.61
347.608
347.606
347.606
347.607
347.609
347.611
347.614
347.616
347.616
347.609
347.587
347.534
347.402
347.04
345.923
342.58
334.963
335.11
342.844
346.076
347.114
347.441
347.556
347.601
347.616
347.619
347.617
347.613
347.609
347.605
347.603
347.601
347.601
347.602
347.604
347.607
347.61
347.613
347.614
347.609
347.59
347.542
347.422
347.091
346.052
342.825
335.097
335.213
343.019
346.162
347.145
347.452
347.56
347.602
347.616
347.618
347.615
347.61
347.605
347.601
347.598
347.597
347.597
347.598
347.6
347.603
347.607
347.611
347.613
347.609
347.593
347.549
347.438
347.128
346.143
343.003
335.202
335.284
343.133
346.216
347.165
347.459
347.563
347.602
347.615
347.616
347.613
347.608
347.603
347.598
347.595
347.594
347.594
347.595
347.598
347.601
347.606
347.61
347.612
347.61
347.595
347.554
347.449
347.153
346.203
343.122
335.276
335.321
343.19
346.243
347.176
347.463
347.564
347.602
347.614
347.615
347.612
347.606
347.601
347.597
347.594
347.593
347.593
347.594
347.597
347.601
347.606
347.61
347.613
347.612
347.599
347.56
347.457
347.169
346.235
343.182
335.316
335.323
343.192
346.246
347.178
347.465
347.566
347.603
347.615
347.616
347.612
347.607
347.602
347.598
347.595
347.593
347.593
347.595
347.598
347.602
347.607
347.612
347.616
347.615
347.602
347.564
347.463
347.175
346.242
343.188
335.32
335.289
343.14
346.223
347.172
347.464
347.566
347.605
347.617
347.618
347.614
347.609
347.604
347.6
347.597
347.596
347.596
347.597
347.6
347.604
347.61
347.615
347.619
347.619
347.607
347.569
347.466
347.174
346.224
343.14
335.288
335.222
343.032
346.175
347.156
347.46
347.567
347.606
347.619
347.62
347.617
347.612
347.607
347.603
347.601
347.6
347.6
347.602
347.605
347.609
347.614
347.619
347.623
347.623
347.611
347.572
347.467
347.163
346.18
343.035
335.224
335.124
342.864
346.096
347.13
347.453
347.565
347.607
347.621
347.623
347.62
347.616
347.612
347.609
347.607
347.606
347.606
347.608
347.61
347.614
347.619
347.623
347.627
347.626
347.614
347.574
347.463
347.141
346.106
342.871
335.128
334.997
342.631
345.979
347.088
347.439
347.561
347.606
347.622
347.625
347.624
347.621
347.618
347.615
347.614
347.614
347.614
347.615
347.617
347.62
347.624
347.627
347.63
347.628
347.614
347.571
347.451
347.103
345.994
342.643
335.005
334.847
342.326
345.813
347.022
347.413
347.549
347.601
347.62
347.626
347.626
347.625
347.623
347.622
347.622
347.622
347.623
347.623
347.625
347.626
347.628
347.629
347.63
347.625
347.608
347.56
347.427
347.04
345.832
342.344
334.859
334.678
341.943
345.576
346.919
347.368
347.529
347.591
347.614
347.622
347.625
347.626
347.627
347.628
347.629
347.63
347.63
347.631
347.631
347.63
347.629
347.628
347.625
347.618
347.596
347.538
347.381
346.938
345.599
341.966
334.694
334.501
341.477
345.239
346.762
347.3
347.5
347.576
347.603
347.612
347.617
347.621
347.625
347.629
347.631
347.633
347.634
347.634
347.632
347.629
347.624
347.619
347.613
347.603
347.577
347.504
347.309
346.779
345.262
341.504
334.522
334.328
340.922
344.768
346.546
347.224
347.475
347.558
347.579
347.586
347.592
347.6
347.609
347.616
347.621
347.624
347.625
347.624
347.62
347.613
347.604
347.593
347.584
347.575
347.553
347.472
347.226
346.557
344.789
340.95
334.353
334.162
340.302
344.227
346.349
347.207
347.475
347.523
347.516
347.514
347.524
347.54
347.556
347.569
347.577
347.581
347.583
347.581
347.575
347.563
347.545
347.526
347.51
347.507
347.509
347.461
347.197
346.347
344.238
340.323
334.185
333.999
339.79
344.05
346.496
347.374
347.474
347.383
347.317
347.31
347.338
347.373
347.404
347.426
347.44
347.447
347.449
347.445
347.434
347.413
347.381
347.341
347.306
347.304
347.36
347.446
347.346
346.477
344.046
339.799
334.014
334.035
340.212
345.288
347.546
347.652
347.15
346.792
346.679
346.71
346.793
346.875
346.938
346.982
347.009
347.023
347.025
347.016
346.992
346.95
346.886
346.799
346.708
346.664
346.761
347.104
347.601
347.504
345.264
340.206
334.038
336.151
343.274
349.36
348.808
346.836
345.384
344.799
344.756
344.926
345.135
345.317
345.456
345.554
345.615
345.646
345.648
345.622
345.564
345.469
345.331
345.146
344.93
344.747
344.769
345.328
346.76
348.729
349.299
343.252
336.149
332.204
360.112
352.11
346.351
342.519
340.848
340.417
340.521
340.798
341.093
341.352
341.557
341.708
341.807
341.857
341.859
341.813
341.718
341.57
341.368
341.111
340.813
340.526
340.403
340.803
342.436
346.236
351.988
360.003
332.239
445.004
361.984
346.439
337.509
334.415
333.486
333.276
333.293
333.383
333.481
333.569
333.643
333.701
333.74
333.76
333.762
333.744
333.708
333.653
333.582
333.497
333.4
333.307
333.281
333.472
334.366
337.405
346.277
361.776
444.639
442.815
361.158
346.163
337.242
333.905
332.676
332.232
332.09
332.074
332.099
332.134
332.169
332.198
332.22
332.231
332.231
332.22
332.199
332.168
332.132
332.094
332.066
332.078
332.213
332.647
333.859
337.174
346.076
361.062
442.63
331.799
359.384
352.13
346.487
342.381
340.237
339.364
339.147
339.217
339.389
339.575
339.739
339.868
339.956
340.001
340.001
339.956
339.867
339.735
339.568
339.377
339.201
339.125
339.335
340.201
342.34
346.445
352.093
359.333
331.783
335.929
343.25
349.524
349.204
347.106
345.201
344.098
343.668
343.632
343.771
343.96
344.137
344.277
344.372
344.42
344.419
344.37
344.272
344.128
343.946
343.752
343.608
343.641
344.069
345.173
347.082
349.186
349.508
343.237
335.915
333.28
339.772
345.186
347.898
348.222
347.554
346.882
346.527
346.446
346.508
346.619
346.728
346.815
346.873
346.901
346.9
346.868
346.807
346.716
346.601
346.486
346.421
346.503
346.86
347.537
348.211
347.89
345.178
339.76
333.27
332.925
338.786
343.347
346.401
347.838
348.129
347.984
347.814
347.735
347.732
347.767
347.812
347.851
347.877
347.89
347.889
347.873
347.843
347.801
347.753
347.715
347.717
347.799
347.972
348.121
347.834
346.398
343.342
338.781
332.927
332.937
338.94
343.047
345.879
347.486
348.112
348.25
348.232
348.197
348.185
348.193
348.209
348.226
348.238
348.244
348.243
348.235
348.22
348.201
348.183
348.175
348.187
348.223
348.245
348.11
347.487
345.879
343.047
338.944
332.949
333.018
339.383
343.399
346.029
347.461
348.072
348.29
348.347
348.352
348.349
348.35
348.356
348.363
348.368
348.371
348.37
348.366
348.359
348.351
348.344
348.343
348.347
348.344
348.289
348.073
347.464
346.032
343.405
339.395
333.034
333.116
339.842
343.908
346.393
347.59
348.094
348.301
348.377
348.4
348.405
348.406
348.408
348.41
348.412
348.412
348.412
348.41
348.407
348.404
348.402
348.401
348.397
348.376
348.302
348.097
347.595
346.399
343.918
339.858
333.134
333.224
340.256
344.388
346.729
347.735
348.144
348.316
348.387
348.413
348.42
348.422
348.421
348.421
348.42
348.42
348.42
348.419
348.419
348.419
348.419
348.419
348.412
348.387
348.319
348.149
347.742
346.737
344.401
340.273
333.242
333.33
340.612
344.782
346.979
347.852
348.193
348.334
348.392
348.415
348.421
348.421
348.419
348.416
348.415
348.414
348.413
348.414
348.415
348.417
348.42
348.42
348.415
348.393
348.336
348.198
347.859
346.989
344.796
340.629
333.346
333.426
340.91
345.089
347.156
347.935
348.23
348.347
348.395
348.413
348.417
348.414
348.41
348.406
348.403
348.402
348.402
348.403
348.406
348.409
348.414
348.416
348.413
348.397
348.35
348.234
347.942
347.166
345.102
340.925
333.44
333.507
341.147
345.317
347.277
347.991
348.253
348.356
348.396
348.41
348.41
348.406
348.401
348.395
348.392
348.389
348.389
348.391
348.395
348.4
348.406
348.41
348.41
348.397
348.358
348.257
347.996
347.285
345.328
341.16
333.518
333.571
341.325
345.477
347.356
348.025
348.268
348.361
348.396
348.406
348.405
348.399
348.392
348.386
348.381
348.379
348.379
348.381
348.385
348.391
348.398
348.404
348.406
348.396
348.362
348.27
348.028
347.361
345.485
341.334
333.579
333.614
341.443
345.579
347.404
348.046
348.276
348.363
348.395
348.403
348.401
348.394
348.386
348.379
348.374
348.371
348.371
348.374
348.378
348.385
348.393
348.399
348.402
348.394
348.362
348.275
348.046
347.406
345.583
341.449
333.619
333.635
341.503
345.628
347.427
348.056
348.28
348.365
348.395
348.402
348.399
348.391
348.383
348.376
348.37
348.368
348.367
348.37
348.375
348.382
348.389
348.397
348.4
348.392
348.362
348.277
348.053
347.426
345.629
341.506
333.638
333.636
341.503
345.629
347.429
348.057
348.281
348.366
348.396
348.403
348.399
348.391
348.383
348.376
348.37
348.368
348.367
348.37
348.375
348.381
348.389
348.396
348.399
348.391
348.36
348.275
348.05
347.423
345.626
341.503
333.636
333.614
341.444
345.582
347.408
348.05
348.279
348.366
348.397
348.405
348.402
348.395
348.387
348.38
348.374
348.372
348.371
348.374
348.378
348.385
348.392
348.398
348.4
348.391
348.358
348.27
348.039
347.398
345.574
341.44
333.612
333.571
341.327
345.482
347.363
348.032
348.273
348.365
348.399
348.408
348.406
348.4
348.393
348.387
348.382
348.379
348.379
348.381
348.385
348.391
348.397
348.402
348.403
348.392
348.356
348.261
348.017
347.347
345.469
341.318
333.566
333.508
341.15
345.323
347.285
347.998
348.26
348.361
348.399
348.412
348.412
348.408
348.402
348.396
348.392
348.39
348.39
348.391
348.395
348.399
348.404
348.408
348.406
348.392
348.35
348.246
347.981
347.265
345.304
341.137
333.499
333.427
340.913
345.096
347.166
347.944
348.236
348.351
348.397
348.414
348.417
348.415
348.411
348.407
348.404
348.403
348.402
348.403
348.405
348.409
348.412
348.414
348.41
348.391
348.341
348.221
347.924
347.141
345.071
340.894
333.415
333.33
340.614
344.788
346.988
347.859
348.197
348.335
348.392
348.414
348.421
348.421
348.419
348.417
348.416
348.414
348.414
348.414
348.415
348.417
348.418
348.418
348.412
348.388
348.328
348.185
347.84
346.962
344.76
340.592
333.315
333.224
340.256
344.391
346.733
347.738
348.144
348.314
348.383
348.41
348.418
348.421
348.421
348.422
348.421
348.421
348.42
348.419
348.418
348.418
348.418
348.417
348.41
348.384
348.312
348.137
347.723
346.71
344.362
340.232
333.206
333.115
339.84
343.907
346.391
347.585
348.086
348.292
348.368
348.393
348.4
348.404
348.407
348.41
348.413
348.413
348.412
348.409
348.406
348.403
348.401
348.401
348.397
348.375
348.299
348.089
347.58
346.374
343.883
339.817
333.097
333.014
339.378
343.392
346.018
347.445
348.053
348.273
348.332
348.34
348.341
348.347
348.355
348.363
348.369
348.371
348.369
348.364
348.356
348.348
348.343
348.343
348.348
348.346
348.29
348.071
347.456
346.016
343.378
339.36
332.999
332.931
338.93
343.032
345.858
347.458
348.081
348.221
348.208
348.18
348.175
348.188
348.208
348.226
348.238
348.243
348.24
348.231
348.215
348.197
348.181
348.175
348.191
348.229
348.252
348.117
347.491
345.878
343.035
338.923
332.922
332.916
338.77
343.322
346.368
347.795
348.083
347.942
347.781
347.712
347.719
347.761
347.81
347.851
347.877
347.887
347.883
347.865
347.834
347.793
347.748
347.714
347.722
347.808
347.986
348.139
347.854
346.414
343.347
338.778
332.915
333.268
339.747
345.15
347.849
348.163
347.495
346.831
346.489
346.42
346.493
346.611
346.724
346.812
346.868
346.893
346.887
346.853
346.79
346.699
346.588
346.479
346.424
346.516
346.883
347.569
348.248
347.927
345.204
339.774
333.276
335.907
343.217
349.474
349.139
347.036
345.139
344.049
343.634
343.609
343.756
343.949
344.128
344.267
344.359
344.402
344.397
344.343
344.243
344.099
343.922
343.736
343.603
343.651
344.094
345.214
347.137
349.252
349.575
343.274
335.923
331.788
359.339
352.062
346.416
342.317
340.187
339.328
339.122
339.2
339.375
339.563
339.727
339.854
339.939
339.979
339.975
339.927
339.835
339.704
339.539
339.354
339.188
339.126
339.356
340.246
342.411
346.543
352.21
359.483
331.784
442.679
361.075
346.099
337.192
333.867
332.65
332.213
332.076
332.062
332.088
332.122
332.156
332.183
332.201
332.209
332.206
332.192
332.169
332.138
332.103
332.069
332.048
332.069
332.22
332.677
333.921
337.28
346.23
361.248
443.057
440.367
360.447
345.996
337.062
333.331
331.686
330.932
330.595
330.462
330.419
330.416
330.428
330.445
330.459
330.466
330.466
330.458
330.444
330.427
330.415
330.42
330.465
330.602
330.948
331.716
333.386
337.154
346.124
360.595
440.592
331.109
358.135
351.36
346.052
341.902
339.424
338.145
337.587
337.417
337.437
337.535
337.65
337.752
337.826
337.864
337.863
337.824
337.749
337.646
337.532
337.436
337.42
337.596
338.167
339.462
341.959
346.123
351.43
358.198
331.059
335.224
342.464
348.71
348.605
346.619
344.554
343.1
342.294
341.956
341.894
341.969
342.092
342.213
342.304
342.352
342.351
342.301
342.208
342.086
341.963
341.891
341.958
342.305
343.121
344.586
346.659
348.642