/*--------------------------------*- C++ -*----------------------------------*\
| =========                 |                                                 |
| \\      /  F ield         | OpenFOAM: The Open Source CFD Toolbox           |
|  \\    /   O peration     | Version:  2312                                  |
|   \\  /    A nd           | Website:  www.openfoam.com                      |
|    \\/     M anipulation  |                                                 |
\*---------------------------------------------------------------------------*/
FoamFile
{
    version     2.0;
    format      ascii;
    arch        "LSB;label=32;scalar=64";
    class       volVectorField;
    location    "200";
    object      U;
}
// * * * * * * * * * * * * * * * * * * * * * * * * * * * * * * * * * * * * * //

dimensions      [0 1 -1 0 0 0 0];

internalField   nonuniform List<vector> 
27000
(
(-5.64782e-05 9.91303e-05 0.10768)
(-0.000205792 0.000218411 0.0764644)
(-0.000104477 0.000226187 0.0818387)
(-7.39188e-05 0.0002041 0.083414)
(-3.91e-05 0.000197346 0.0852638)
(-1.78384e-05 0.000196875 0.086709)
(-1.91806e-06 0.000198647 0.0877861)
(9.47783e-06 0.00020114 0.088647)
(1.66973e-05 0.000203887 0.0893665)
(2.00487e-05 0.00020671 0.0899438)
(2.02818e-05 0.000209449 0.0903983)
(1.82011e-05 0.000211869 0.0907493)
(1.4493e-05 0.000213767 0.0910062)
(9.71355e-06 0.000215053 0.0911754)
(4.32888e-06 0.000215692 0.0912618)
(-1.23599e-06 0.000215669 0.091268)
(-6.57611e-06 0.000214992 0.0911939)
(-1.12635e-05 0.000213672 0.0910369)
(-1.48214e-05 0.000211756 0.0907923)
(-1.66823e-05 0.000209363 0.0904542)
(-1.61505e-05 0.000206708 0.0900114)
(-1.24073e-05 0.000204001 0.0894406)
(-4.72764e-06 0.000201421 0.0887231)
(7.20382e-06 0.000199308 0.0878602)
(2.35938e-05 0.000198018 0.0867768)
(4.53804e-05 0.000199397 0.0853184)
(8.02165e-05 0.000206848 0.0834435)
(0.000110756 0.000230427 0.0818256)
(0.000211046 0.000222563 0.0764013)
(5.94979e-05 0.000102082 0.107536)
(0.000300566 -0.000136678 0.0627599)
(0.000128775 -5.24328e-05 0.0838443)
(9.99547e-05 0.000150112 0.091853)
(6.31187e-05 0.000204422 0.0945524)
(5.68645e-05 0.000229784 0.0958212)
(5.87852e-05 0.000246155 0.0966744)
(6.03345e-05 0.000259563 0.0972835)
(6.05777e-05 0.000271036 0.097735)
(5.88111e-05 0.000280611 0.0980816)
(5.46748e-05 0.000288423 0.0983485)
(4.8239e-05 0.000294648 0.0985524)
(3.99122e-05 0.000299446 0.0987065)
(3.01414e-05 0.000302939 0.0988193)
(1.93584e-05 0.000305214 0.0988956)
(7.96962e-06 0.000306345 0.0989383)
(-3.63545e-06 0.000306365 0.0989485)
(-1.50655e-05 0.000305274 0.0989259)
(-2.5936e-05 0.000303041 0.0988685)
(-3.58374e-05 0.000299598 0.0987725)
(-4.43309e-05 0.000294855 0.0986317)
(-5.09528e-05 0.000288713 0.0984358)
(-5.53197e-05 0.000281006 0.098169)
(-5.73314e-05 0.000271648 0.0978128)
(-5.73345e-05 0.000260566 0.0973401)
(-5.59577e-05 0.000247828 0.0966953)
(-5.41838e-05 0.000232288 0.0957899)
(-6.05676e-05 0.000207974 0.0944562)
(-9.82894e-05 0.000153809 0.0916987)
(-0.000128979 -5.08939e-05 0.0836828)
(-0.000305936 -0.000140842 0.0627134)
(9.82583e-05 0.000137807 0.0806614)
(0.000124699 0.000159813 0.0901258)
(0.000164377 0.00021134 0.0970407)
(0.000152631 0.00024188 0.0986729)
(0.000134152 0.000261707 0.0991346)
(0.000119443 0.000275922 0.0993541)
(0.000107106 0.000287454 0.0995106)
(9.60807e-05 0.000297302 0.0996318)
(8.55545e-05 0.000305671 0.0997276)
(7.47418e-05 0.00031253 0.0998039)
(6.31864e-05 0.00031795 0.0998646)
(5.07391e-05 0.000322048 0.0999127)
(3.74689e-05 0.000324959 0.0999503)
(2.35457e-05 0.000326819 0.0999784)
(9.18699e-06 0.000327709 0.0999972)
(-5.35793e-06 0.000327692 0.100007)
(-1.98334e-05 0.000326761 0.100006)
(-3.39864e-05 0.000324884 0.0999934)
(-4.75946e-05 0.00032197 0.0999679)
(-6.04772e-05 0.000317914 0.0999264)
(-7.25558e-05 0.000312577 0.0998649)
(-8.39397e-05 0.000305887 0.0997784)
(-9.50678e-05 0.000297806 0.0996613)
(-0.000106637 0.000288393 0.0995063)
(-0.000119385 0.000277463 0.0993033)
(-0.00013434 0.000263916 0.0990285)
(-0.000153032 0.000244584 0.0985145)
(-0.000165201 0.000213595 0.0968649)
(-0.0001271 0.000159644 0.0900196)
(-0.000101929 0.000133967 0.0806589)
(0.000142565 5.93899e-05 0.0839686)
(0.0001544 0.000142955 0.0940847)
(0.000184875 0.000215637 0.0983891)
(0.000178573 0.000239759 0.0994727)
(0.000164076 0.000254749 0.0997725)
(0.000146957 0.000265931 0.0998766)
(0.000130007 0.000275281 0.0999329)
(0.000114047 0.000283602 0.0999749)
(9.90459e-05 0.000290947 0.100009)
(8.45596e-05 0.000297204 0.100038)
(7.01311e-05 0.000302266 0.100063)
(5.54667e-05 0.000306128 0.100084)
(4.0437e-05 0.000308879 0.100102)
(2.5027e-05 0.000310618 0.100116)
(9.32894e-06 0.000311444 0.100128)
(-6.52349e-06 0.000311409 0.100135)
(-2.23751e-05 0.000310532 0.100138)
(-3.80826e-05 0.000308768 0.100134)
(-5.35452e-05 0.000306049 0.100123)
(-6.87436e-05 0.000302283 0.100102)
(-8.37703e-05 0.000297418 0.10007)
(-9.88794e-05 0.000291455 0.100025)
(-0.000114439 0.000284523 0.0999651)
(-0.000130821 0.000276724 0.0998893)
(-0.000148016 0.000267915 0.0997947)
(-0.000165157 0.000257203 0.0996561)
(-0.000179598 0.000242267 0.0993385)
(-0.000186176 0.000217179 0.0982744)
(-0.000157097 0.000141552 0.0940475)
(-0.000146321 5.42199e-05 0.084004)
(0.000139215 8.92694e-05 0.0864748)
(0.000174849 0.000152068 0.0960148)
(0.000203908 0.000208131 0.0990548)
(0.000195754 0.000228996 0.0997351)
(0.000181219 0.000241298 0.0999388)
(0.000163554 0.000250262 0.100009)
(0.00014489 0.000257767 0.100038)
(0.000126564 0.000264537 0.100054)
(0.000108992 0.000270697 0.100067)
(9.20839e-05 0.000276124 0.100078)
(7.55675e-05 0.000280647 0.100088)
(5.91809e-05 0.00028419 0.100098)
(4.27302e-05 0.000286745 0.100108)
(2.61259e-05 0.000288377 0.100116)
(9.35117e-06 0.000289155 0.100124)
(-7.54326e-06 0.000289132 0.100129)
(-2.44843e-05 0.000288325 0.100131)
(-4.14121e-05 0.000286715 0.10013)
(-5.8307e-05 0.000284258 0.100123)
(-7.52223e-05 0.000280918 0.100109)
(-9.22964e-05 0.000276703 0.100088)
(-0.000109708 0.000271695 0.100059)
(-0.000127659 0.000266031 0.100023)
(-0.00014618 0.000259775 0.099981)
(-0.000164805 0.000252714 0.0999291)
(-0.000182257 0.000243959 0.0998467)
(-0.000196525 0.00023139 0.0996509)
(-0.000204697 0.000209304 0.0990082)
(-0.000176701 0.000150523 0.0960355)
(-0.000141485 8.47248e-05 0.0865334)
(0.000146155 9.02846e-05 0.088285)
(0.000191659 0.000155533 0.097131)
(0.000218818 0.000198924 0.099409)
(0.000209356 0.000214246 0.0998722)
(0.000193968 0.000223788 0.100005)
(0.00017559 0.000230884 0.10005)
(0.00015598 0.000236935 0.100065)
(0.000136312 0.000242484 0.10007)
(0.000117132 0.000247634 0.100073)
(9.85385e-05 0.00025227 0.100075)
(8.04224e-05 0.000256247 0.100079)
(6.26041e-05 0.000259435 0.100083)
(4.49058e-05 0.000261791 0.100087)
(2.71963e-05 0.000263322 0.100093)
(9.41387e-06 0.000264069 0.100097)
(-8.45589e-06 0.000264076 0.100101)
(-2.64019e-05 0.000263361 0.100102)
(-4.44164e-05 0.000261926 0.100101)
(-6.25259e-05 0.000259761 0.100096)
(-8.08017e-05 0.000256871 0.100086)
(-9.93495e-05 0.000253303 0.100072)
(-0.000118279 0.000249152 0.100055)
(-0.000137626 0.000244508 0.100035)
(-0.000157245 0.0002394 0.100014)
(-0.000176614 0.000233612 0.0999896)
(-0.000194609 0.000226467 0.0999485)
(-0.000209631 0.000216387 0.0998373)
(-0.000219075 0.000199721 0.0994154)
(-0.000192737 0.000153856 0.0971902)
(-0.000147556 8.61065e-05 0.0883538)
(0.00015286 9.00776e-05 0.0896468)
(0.000206675 0.000150527 0.0978375)
(0.000231412 0.000185174 0.0996185)
(0.000220753 0.0001968 0.0999534)
(0.000204439 0.000204005 0.100039)
(0.000185358 0.000209524 0.100064)
(0.000165038 0.000214359 0.100069)
(0.00014448 0.000218898 0.100068)
(0.000124189 0.000223187 0.100065)
(0.000104354 0.00022713 0.100063)
(8.49682e-05 0.000230582 0.100063)
(6.59266e-05 0.000233417 0.100063)
(4.70906e-05 0.000235556 0.100065)
(2.83337e-05 0.000236977 0.100068)
(9.56808e-06 0.000237697 0.100071)
(-9.25569e-06 0.000237743 0.100073)
(-2.81648e-05 0.000237139 0.100074)
(-4.71835e-05 0.000235899 0.100072)
(-6.63538e-05 0.000234036 0.100069)
(-8.57386e-05 0.000231579 0.100062)
(-0.000105406 0.000228585 0.100054)
(-0.000125391 0.000225132 0.100045)
(-0.000145649 0.000221288 0.100038)
(-0.000165989 0.000217048 0.100033)
(-0.000185932 0.000212268 0.100029)
(-0.000204582 0.00020646 0.100017)
(-0.000220576 0.000198502 0.0999568)
(-0.000231243 0.000185513 0.0996587)
(-0.000207243 0.000148743 0.0979151)
(-0.000153648 8.6493e-05 0.0897166)
(0.000159655 8.65829e-05 0.0906846)
(0.00021974 0.000141166 0.0983165)
(0.000242065 0.000168573 0.0997551)
(0.000230402 0.000177419 0.100005)
(0.000213246 0.000182858 0.10006)
(0.000193556 0.000187088 0.10007)
(0.000172681 0.000190895 0.100067)
(0.000151468 0.000194549 0.100061)
(0.00013037 0.000198072 0.100055)
(0.000109591 0.000201374 0.10005)
(8.91863e-05 0.000204321 0.100048)
(6.91068e-05 0.000206793 0.100047)
(4.92546e-05 0.000208697 0.100047)
(2.95221e-05 0.000209995 0.100049)
(9.82002e-06 0.00021068 0.10005)
(-9.91576e-06 0.000210769 0.100051)
(-2.97295e-05 0.000210283 0.100052)
(-4.96601e-05 0.000209244 0.100051)
(-6.97487e-05 0.000207677 0.100048)
(-9.0041e-05 0.00020562 0.100045)
(-0.000110571 0.000203127 0.100041)
(-0.000131335 0.000200262 0.100039)
(-0.000152255 0.000197066 0.100041)
(-0.000173139 0.000193543 0.100048)
(-0.000193606 0.000189589 0.100058)
(-0.00021291 0.000184875 0.100064)
(-0.000229838 0.000178571 0.100034)
(-0.000241617 0.000168414 0.0998122)
(-0.00021998 0.000139298 0.0983973)
(-0.000160002 8.35791e-05 0.0907463)
(0.000166632 8.02049e-05 0.0914938)
(0.000231174 0.000128249 0.098657)
(0.000251174 0.000149906 0.099851)
(0.000238522 0.000156617 0.100041)
(0.000220622 0.0001607 0.100073)
(0.000200404 0.000163892 0.100072)
(0.000179089 0.000166829 0.100062)
(0.000157392 0.00016971 0.100053)
(0.000135695 0.000172546 0.100045)
(0.000114201 0.000175254 0.10004)
(9.29882e-05 0.000177722 0.100036)
(7.20472e-05 0.000179829 0.100035)
(5.13144e-05 0.000181489 0.100034)
(3.07099e-05 0.000182646 0.100035)
(1.01533e-05 0.000183285 0.100036)
(-1.04168e-05 0.000183409 0.100036)
(-3.10481e-05 0.000183037 0.100036)
(-5.17795e-05 0.000182189 0.100036)
(-7.2645e-05 0.000180897 0.100035)
(-9.36734e-05 0.000179195 0.100033)
(-0.000114877 0.000177135 0.100033)
(-0.000136232 0.000174763 0.100037)
(-0.00015766 0.000172118 0.100045)
(-0.000178999 0.000169201 0.100059)
(-0.000199936 0.000165956 0.100078)
(-0.000219864 0.000162161 0.100095)
(-0.000237674 0.000157184 0.100082)
(-0.000250533 0.000149293 0.0999127)
(-0.00023121 0.000126332 0.0987323)
(-0.000166734 7.77229e-05 0.0915457)
(0.000173178 7.1317e-05 0.0921251)
(0.00024102 0.000112471 0.0989054)
(0.000258874 0.000129472 0.099921)
(0.000245289 0.000134555 0.100068)
(0.000226689 0.000137605 0.100083)
(0.000206 0.000139987 0.100072)
(0.000184339 0.000142217 0.100058)
(0.00016228 0.000144446 0.100047)
(0.000140149 0.000146681 0.100038)
(0.000118123 0.000148855 0.100032)
(9.62862e-05 0.000150871 0.100028)
(7.46523e-05 0.000152626 0.100027)
(5.31887e-05 0.000154035 0.100026)
(3.18366e-05 0.000155042 0.100026)
(1.05386e-05 0.00015562 0.100027)
(-1.0759e-05 0.000155767 0.100027)
(-3.20977e-05 0.000155492 0.100027)
(-5.35067e-05 0.000154817 0.100027)
(-7.50125e-05 0.000153766 0.100027)
(-9.66296e-05 0.000152377 0.100027)
(-0.000118359 0.000150684 0.10003)
(-0.000140172 0.000148733 0.100036)
(-0.000162003 0.000146551 0.100048)
(-0.000183722 0.000144156 0.100066)
(-0.000205084 0.000141513 0.10009)
(-0.0002256 0.000138484 0.100113)
(-0.000244229 0.000134584 0.100113)
(-0.00025811 0.000128499 0.09998)
(-0.000240906 0.000110561 0.0989716)
(-0.000173136 6.92736e-05 0.0921688)
(0.000178919 6.04779e-05 0.092607)
(0.000249223 9.44392e-05 0.0990865)
(0.000265204 0.000107548 0.0999722)
(0.000250749 0.000111358 0.100087)
(0.000231532 0.000113615 0.10009)
(0.00021044 0.00011539 0.100073)
(0.000188497 0.000117063 0.100056)
(0.000166175 0.000118759 0.100042)
(0.000143734 0.000120483 0.100032)
(0.000121323 0.000122188 0.100027)
(9.9022e-05 0.000123792 0.100023)
(7.68541e-05 0.000125213 0.100022)
(5.48079e-05 0.000126375 0.100021)
(3.28504e-05 0.000127222 0.100021)
(1.09393e-05 0.000127729 0.100022)
(-1.09614e-05 0.000127881 0.100022)
(-3.28812e-05 0.000127687 0.100022)
(-5.48436e-05 0.00012716 0.100022)
(-7.68611e-05 0.000126321 0.100023)
(-9.8941e-05 0.000125198 0.100024)
(-0.000121077 0.000123822 0.100028)
(-0.000143248 0.000122229 0.100036)
(-0.000165401 0.000120446 0.10005)
(-0.00018744 0.000118494 0.10007)
(-0.000209176 0.000116361 0.100096)
(-0.000230205 0.000113956 0.100122)
(-0.000249554 0.000110944 0.10013)
(-0.000264352 0.000106326 0.100025)
(-0.000248992 9.25976e-05 0.0991421)
(-0.000178788 5.88096e-05 0.0926431)
(0.000183654 4.81394e-05 0.0929645)
(0.000255757 7.46684e-05 0.0992159)
(0.000270191 8.4407e-05 0.100009)
(0.000254985 8.71936e-05 0.1001)
(0.000235235 8.88412e-05 0.100094)
(0.000213808 9.01447e-05 0.100073)
(0.000191644 9.13843e-05 0.100054)
(0.000169132 9.26487e-05 0.100039)
(0.00014648 9.39486e-05 0.100029)
(0.000123804 9.52468e-05 0.100023)
(0.000101171 9.64854e-05 0.10002)
(7.86126e-05 9.75958e-05 0.100019)
(5.61291e-05 9.85183e-05 0.100018)
(3.37059e-05 9.92057e-05 0.100019)
(1.13203e-05 9.96286e-05 0.100019)
(-1.10512e-05 9.97752e-05 0.100019)
(-3.34262e-05 9.96437e-05 0.100019)
(-5.58161e-05 9.92431e-05 0.10002)
(-7.8228e-05 9.85879e-05 0.100021)
(-0.000100661 9.76975e-05 0.100023)
(-0.00012311 9.65978e-05 0.100028)
(-0.000145555 9.53149e-05 0.100036)
(-0.000167962 9.38788e-05 0.10005)
(-0.000190262 9.23085e-05 0.100071)
(-0.00021231 9.06122e-05 0.100097)
(-0.000233765 8.87338e-05 0.100126)
(-0.000253712 8.64547e-05 0.100139)
(-0.000269285 8.30483e-05 0.100053)
(-0.000255431 7.29444e-05 0.099261)
(-0.000183474 4.6795e-05 0.0929936)
(0.000187265 3.47034e-05 0.0932169)
(0.000260614 5.361e-05 0.0993046)
(0.00027386 6.03257e-05 0.100034)
(0.000258057 6.22512e-05 0.10011)
(0.000237889 6.34082e-05 0.100098)
(0.000216198 6.43411e-05 0.100074)
(0.000193868 6.52346e-05 0.100053)
(0.000171228 6.61503e-05 0.100037)
(0.000148438 6.70951e-05 0.100027)
(0.000125589 6.80441e-05 0.100021)
(0.000102738 6.89564e-05 0.100019)
(7.99136e-05 6.97834e-05 0.100017)
(5.71271e-05 7.04791e-05 0.100017)
(3.43752e-05 7.10076e-05 0.100017)
(1.16493e-05 7.13434e-05 0.100018)
(-1.10608e-05 7.14728e-05 0.100018)
(-3.37639e-05 7.13915e-05 0.100018)
(-5.64644e-05 7.11015e-05 0.100019)
(-7.91618e-05 7.06098e-05 0.10002)
(-0.000101853 6.99294e-05 0.100022)
(-0.00012453 6.90762e-05 0.100027)
(-0.00014718 6.80733e-05 0.100036)
(-0.00016978 6.69429e-05 0.10005)
(-0.000192282 6.57117e-05 0.10007)
(-0.00021457 6.4392e-05 0.100096)
(-0.000236352 6.29666e-05 0.100126)
(-0.000256756 6.13003e-05 0.100142)
(-0.000272924 5.89269e-05 0.10007)
(-0.000260216 5.20454e-05 0.0993403)
(-0.000187056 3.36447e-05 0.0932401)
(0.00018968 2.05291e-05 0.0933781)
(0.000263802 3.1683e-05 0.0993602)
(0.000276236 3.55914e-05 0.10005)
(0.000260021 3.67534e-05 0.100116)
(0.000239565 3.74922e-05 0.1001)
(0.000217695 3.81132e-05 0.100074)
(0.000195256 3.87176e-05 0.100052)
(0.000172536 3.93387e-05 0.100037)
(0.000149667 3.99773e-05 0.100026)
(0.000126721 4.06194e-05 0.100021)
(0.000103743 4.12376e-05 0.100018)
(8.07613e-05 4.18026e-05 0.100017)
(5.77913e-05 4.22843e-05 0.100017)
(3.48391e-05 4.26578e-05 0.100017)
(1.19037e-05 4.29049e-05 0.100017)
(-1.10177e-05 4.3013e-05 0.100017)
(-3.39274e-05 4.29748e-05 0.100018)
(-5.68248e-05 4.27871e-05 0.100018)
(-7.9707e-05 4.245e-05 0.10002)
(-0.000102568 4.1967e-05 0.100022)
(-0.0001254 4.13471e-05 0.100027)
(-0.000148192 4.06043e-05 0.100035)
(-0.000170929 3.97589e-05 0.100048)
(-0.000193572 3.88347e-05 0.100068)
(-0.000216025 3.78549e-05 0.100094)
(-0.000238024 3.68264e-05 0.100124)
(-0.000258728 3.56959e-05 0.100143)
(-0.000275292 3.42298e-05 0.100078)
(-0.000263352 3.03098e-05 0.0993881)
(-0.000189454 1.97294e-05 0.0933966)
(0.000190853 5.93785e-06 0.0934567)
(0.000265327 9.26843e-06 0.0993873)
(0.000277344 1.0488e-05 0.100058)
(0.000260918 1.09373e-05 0.100119)
(0.000240319 1.12935e-05 0.100102)
(0.000218361 1.16312e-05 0.100075)
(0.00019587 1.19745e-05 0.100053)
(0.000173116 1.23273e-05 0.100037)
(0.000150215 1.26868e-05 0.100026)
(0.000127232 1.30438e-05 0.100021)
(0.000104205 1.33871e-05 0.100018)
(8.11616e-05 1.37026e-05 0.100017)
(5.81194e-05 1.39778e-05 0.100017)
(3.50869e-05 1.42004e-05 0.100017)
(1.20668e-05 1.43597e-05 0.100017)
(-1.09414e-05 1.44464e-05 0.100017)
(-3.39385e-05 1.44518e-05 0.100018)
(-5.69238e-05 1.43673e-05 0.100018)
(-7.98936e-05 1.41856e-05 0.10002)
(-0.000102841 1.39014e-05 0.100022)
(-0.000125758 1.35138e-05 0.100027)
(-0.000148634 1.30287e-05 0.100035)
(-0.000171451 1.24601e-05 0.100047)
(-0.000194174 1.18302e-05 0.100066)
(-0.000216714 1.11688e-05 0.100092)
(-0.000238818 1.05053e-05 0.100122)
(-0.000259659 9.86035e-06 0.100141)
(-0.000276407 9.22468e-06 0.100081)
(-0.000264844 8.11051e-06 0.0994094)
(-0.000190621 5.38166e-06 0.0934717)
(0.000190764 -8.77147e-06 0.0934571)
(0.000265195 -1.32741e-05 0.0993883)
(0.0002772 -1.4705e-05 0.100059)
(0.000260776 -1.49542e-05 0.100121)
(0.000240183 -1.49745e-05 0.100103)
(0.00021823 -1.4916e-05 0.100076)
(0.000195746 -1.48322e-05 0.100054)
(0.000173 -1.47444e-05 0.100037)
(0.00015011 -1.46619e-05 0.100027)
(0.000127142 -1.45873e-05 0.100021)
(0.000104135 -1.45181e-05 0.100018)
(8.11183e-05 -1.44509e-05 0.100017)
(5.81077e-05 -1.4382e-05 0.100017)
(3.51112e-05 -1.431e-05 0.100017)
(1.2129e-05 -1.42368e-05 0.100017)
(-1.08426e-05 -1.41676e-05 0.100018)
(-3.38085e-05 -1.41126e-05 0.100018)
(-5.67716e-05 -1.40843e-05 0.100019)
(-7.97313e-05 -1.40988e-05 0.10002)
(-0.000102683 -1.41708e-05 0.100022)
(-0.000125615 -1.43124e-05 0.100026)
(-0.000148515 -1.45279e-05 0.100034)
(-0.000171358 -1.48113e-05 0.100047)
(-0.000194103 -1.51432e-05 0.100065)
(-0.000216652 -1.54901e-05 0.100091)
(-0.000238748 -1.57994e-05 0.10012)
(-0.000259566 -1.59813e-05 0.100139)
(-0.000276283 -1.58223e-05 0.100078)
(-0.000264701 -1.41987e-05 0.0994065)
(-0.000190538 -9.09414e-06 0.0934696)
(0.000189416 -2.33042e-05 0.0933793)
(0.000263413 -3.55899e-05 0.0993633)
(0.000275809 -3.97061e-05 0.100054)
(0.0002596 -4.06764e-05 0.10012)
(0.000239161 -4.10936e-05 0.100104)
(0.000217308 -4.13352e-05 0.100078)
(0.000194886 -4.15314e-05 0.100055)
(0.000172189 -4.17304e-05 0.100038)
(0.000149349 -4.19459e-05 0.100028)
(0.000126446 -4.21719e-05 0.100022)
(0.000103528 -4.2393e-05 0.100019)
(8.06236e-05 -4.25862e-05 0.100018)
(5.77489e-05 -4.27321e-05 0.100017)
(3.49049e-05 -4.28144e-05 0.100017)
(1.2085e-05 -4.28262e-05 0.100018)
(-1.07244e-05 -4.27692e-05 0.100018)
(-3.35365e-05 -4.26529e-05 0.100018)
(-5.63631e-05 -4.24962e-05 0.100019)
(-7.92111e-05 -4.23223e-05 0.10002)
(-0.000102078 -4.21576e-05 0.100022)
(-0.000124954 -4.20264e-05 0.100026)
(-0.000147818 -4.19452e-05 0.100034)
(-0.000170634 -4.19181e-05 0.100046)
(-0.000193343 -4.19306e-05 0.100065)
(-0.000215827 -4.19453e-05 0.10009)
(-0.00023781 -4.18887e-05 0.100118)
(-0.000258447 -4.15978e-05 0.100136)
(-0.000274922 -4.0639e-05 0.10007)
(-0.000262927 -3.6263e-05 0.0993793)
(-0.000189212 -2.33977e-05 0.0933903)
(0.000186837 -3.73534e-05 0.0932192)
(0.000259986 -5.73139e-05 0.09931)
(0.000273169 -6.42324e-05 0.100041)
(0.000257377 -6.59868e-05 0.100116)
(0.000237233 -6.68526e-05 0.100104)
(0.000215566 -6.74409e-05 0.100078)
(0.000193259 -6.79643e-05 0.100056)
(0.000170647 -6.84956e-05 0.10004)
(0.0001479 -6.90515e-05 0.100029)
(0.000125116 -6.96176e-05 0.100023)
(0.000102358 -7.01595e-05 0.10002)
(7.96595e-05 -7.06378e-05 0.100019)
(5.70295e-05 -7.10132e-05 0.100018)
(3.44606e-05 -7.12578e-05 0.100018)
(1.19313e-05 -7.13552e-05 0.100019)
(-1.05836e-05 -7.13029e-05 0.100019)
(-3.31133e-05 -7.11126e-05 0.100019)
(-5.56825e-05 -7.08067e-05 0.10002)
(-7.83078e-05 -7.04171e-05 0.10002)
(-0.000100996 -6.9983e-05 0.100022)
(-0.000123736 -6.95404e-05 0.100027)
(-0.000146498 -6.91218e-05 0.100034)
(-0.000169232 -6.87412e-05 0.100046)
(-0.000191851 -6.83921e-05 0.100065)
(-0.000214205 -6.80336e-05 0.100089)
(-0.000235974 -6.75685e-05 0.100117)
(-0.000256285 -6.67609e-05 0.100131)
(-0.000272318 -6.49457e-05 0.100056)
(-0.000259525 -5.77132e-05 0.0993252)
(-0.000186665 -3.72119e-05 0.0932296)
(0.000183081 -5.05848e-05 0.0929679)
(0.000254923 -7.80551e-05 0.0992235)
(0.000269271 -8.79969e-05 0.100018)
(0.000254075 -9.06516e-05 0.100109)
(0.000234352 -9.20569e-05 0.100101)
(0.000212945 -9.30739e-05 0.100079)
(0.000190797 -9.39985e-05 0.100058)
(0.000168312 -9.49337e-05 0.100042)
(0.000145702 -9.58949e-05 0.100031)
(0.000123103 -9.68543e-05 0.100025)
(0.000100591 -9.77612e-05 0.100021)
(7.82008e-05 -9.85544e-05 0.10002)
(5.59353e-05 -9.91799e-05 0.10002)
(3.377e-05 -9.95957e-05 0.10002)
(1.1669e-05 -9.97788e-05 0.10002)
(-1.04149e-05 -9.97252e-05 0.10002)
(-3.25264e-05 -9.94464e-05 0.100021)
(-5.47063e-05 -9.89695e-05 0.100021)
(-7.69895e-05 -9.83365e-05 0.100022)
(-9.93908e-05 -9.75936e-05 0.100023)
(-0.000121905 -9.67959e-05 0.100027)
(-0.000144495 -9.5986e-05 0.100035)
(-0.000167088 -9.51942e-05 0.100047)
(-0.000189566 -9.44182e-05 0.100065)
(-0.00021173 -9.36168e-05 0.100088)
(-0.000233201 -9.26658e-05 0.100114)
(-0.000253051 -9.12475e-05 0.100124)
(-0.00026846 -8.84586e-05 0.100034)
(-0.000254501 -7.81485e-05 0.0992395)
(-0.000182951 -5.01849e-05 0.0929787)
(0.000178239 -6.2622e-05 0.0926118)
(0.000248241 -9.73846e-05 0.0990961)
(0.000264105 -0.000110713 0.099983)
(0.000249654 -0.000114457 0.100096)
(0.00023045 -0.00011655 0.100097)
(0.000209362 -0.000118114 0.100078)
(0.000187415 -0.00011955 0.100059)
(0.000165096 -0.000120983 0.100044)
(0.000142687 -0.000122429 0.100034)
(0.000120353 -0.000123847 0.100028)
(9.81882e-05 -0.000125166 0.100024)
(7.62269e-05 -0.000126307 0.100023)
(5.44558e-05 -0.0001272 0.100022)
(3.28339e-05 -0.000127795 0.100023)
(1.12991e-05 -0.000128064 0.100023)
(-1.02112e-05 -0.000128002 0.100023)
(-3.17619e-05 -0.000127622 0.100023)
(-5.34166e-05 -0.000126958 0.100023)
(-7.52233e-05 -0.000126052 0.100024)
(-9.72172e-05 -0.000124967 0.100025)
(-0.000119401 -0.000123764 0.100029)
(-0.000141733 -0.000122506 0.100035)
(-0.000164122 -0.000121231 0.100047)
(-0.000186407 -0.000119946 0.100064)
(-0.000208333 -0.000118601 0.100086)
(-0.000229433 -0.000117045 0.100108)
(-0.000248714 -0.000114862 0.100111)
(-0.000263346 -0.000110897 0.1)
(-0.000247874 -9.71252e-05 0.0991141)
(-0.000178168 -6.19062e-05 0.0926238)
(0.000172458 -7.30393e-05 0.0921312)
(0.000239973 -0.000114841 0.0989163)
(0.000257669 -0.000132119 0.0999321)
(0.00024406 -0.00013724 0.100076)
(0.000225446 -0.000140235 0.100088)
(0.00020472 -0.000142507 0.100075)
(0.000183009 -0.000144587 0.10006)
(0.000160916 -0.000146629 0.100047)
(0.000138784 -0.000148649 0.100037)
(0.000116822 -0.00015059 0.100032)
(9.51304e-05 -0.000152366 0.100029)
(7.37342e-05 -0.000153881 0.100027)
(5.26003e-05 -0.000155054 0.100027)
(3.16591e-05 -0.00015583 0.100028)
(1.08325e-05 -0.000156182 0.100028)
(-9.96519e-06 -0.000156106 0.100028)
(-3.08181e-05 -0.000155618 0.100028)
(-5.18009e-05 -0.00015475 0.100028)
(-7.29911e-05 -0.000153555 0.100028)
(-9.44408e-05 -0.000152093 0.100029)
(-0.000116169 -0.000150446 0.100032)
(-0.000138142 -0.000148681 0.100037)
(-0.000160248 -0.000146851 0.100047)
(-0.000182289 -0.000144962 0.100061)
(-0.000203934 -0.000142954 0.10008)
(-0.000224615 -0.000140638 0.100098)
(-0.000243247 -0.00013747 0.100091)
(-0.000256992 -0.000132009 0.0999511)
(-0.000239698 -0.000114172 0.0989372)
(-0.000172482 -7.19018e-05 0.0921454)
(0.000165971 -8.13593e-05 0.091501)
(0.000230176 -0.000129925 0.0986677)
(0.000249954 -0.000151971 0.0998605)
(0.000237229 -0.000158883 0.100047)
(0.000219248 -0.000163048 0.100076)
(0.000198924 -0.000166249 0.100071)
(0.000177491 -0.000169124 0.10006)
(0.000155691 -0.000171892 0.10005)
(0.000133949 -0.000174567 0.100043)
(0.000112495 -0.000177089 0.100038)
(9.14285e-05 -0.000179355 0.100036)
(7.07517e-05 -0.000181259 0.100035)
(5.03982e-05 -0.000182714 0.100035)
(3.02771e-05 -0.000183667 0.100036)
(1.02841e-05 -0.000184096 0.100036)
(-9.67776e-06 -0.000184002 0.100037)
(-2.96977e-05 -0.000183401 0.100037)
(-4.98751e-05 -0.000182329 0.100037)
(-7.02973e-05 -0.00018083 0.100036)
(-9.1048e-05 -0.000178975 0.100036)
(-0.000112176 -0.000176847 0.100037)
(-0.00013366 -0.000174527 0.10004)
(-0.000155388 -0.000172076 0.100046)
(-0.000177124 -0.00016949 0.100057)
(-0.000198461 -0.000166691 0.100071)
(-0.000218685 -0.000163412 0.100081)
(-0.000236617 -0.000158982 0.100059)
(-0.000249432 -0.000151584 0.09988)
(-0.000230067 -0.000128784 0.098692)
(-0.000166178 -7.96467e-05 0.0915182)
(0.000159201 -8.70151e-05 0.0906921)
(0.000218939 -0.00014207 0.0983248)
(0.000240947 -0.00017007 0.0997604)
(0.000229104 -0.000179327 0.100006)
(0.000211764 -0.000185014 0.100057)
(0.000191857 -0.000189365 0.100064)
(0.00017076 -0.000193193 0.10006)
(0.000149364 -0.000196783 0.100055)
(0.000128162 -0.000200183 0.10005)
(0.000107394 -0.000203326 0.100047)
(8.71356e-05 -0.000206099 0.100046)
(6.73429e-05 -0.000208394 0.100046)
(4.79165e-05 -0.00021012 0.100047)
(2.87317e-05 -0.000211239 0.100049)
(9.67587e-06 -0.000211736 0.10005)
(-9.34756e-06 -0.00021162 0.100051)
(-2.84343e-05 -0.000210912 0.100051)
(-4.76741e-05 -0.000209637 0.10005)
(-6.71797e-05 -0.000207838 0.100048)
(-8.70633e-05 -0.000205579 0.100047)
(-0.000107408 -0.000202947 0.100045)
(-0.000128238 -0.000200038 0.100045)
(-0.000149456 -0.000196908 0.100047)
(-0.000170807 -0.00019356 0.100051)
(-0.000191801 -0.000189849 0.100057)
(-0.000211575 -0.000185415 0.100055)
(-0.000228812 -0.000179384 0.100013)
(-0.000240696 -0.000169461 0.0997779)
(-0.000219137 -0.000140414 0.0983516)
(-0.000159744 -8.45355e-05 0.0907134)
(0.00015282 -8.96559e-05 0.0896531)
(0.000206257 -0.000150662 0.0978409)
(0.000230499 -0.00018621 0.0996172)
(0.000219505 -0.000198493 0.0999474)
(0.000202835 -0.000206118 0.10003)
(0.000183386 -0.00021185 0.100053)
(0.000162715 -0.00021675 0.100059)
(0.00014188 -0.00022124 0.100059)
(0.000121426 -0.000225412 0.100058)
(0.000101577 -0.000229199 0.100058)
(8.23397e-05 -0.000232488 0.10006)
(6.36126e-05 -0.000235157 0.100062)
(4.52428e-05 -0.000237139 0.100065)
(2.70876e-05 -0.000238402 0.100067)
(9.03772e-06 -0.000238956 0.100069)
(-8.99216e-06 -0.000238821 0.10007)
(-2.70665e-05 -0.000238015 0.10007)
(-4.52709e-05 -0.000236553 0.100069)
(-6.37146e-05 -0.000234466 0.100066)
(-8.25361e-05 -0.0002318 0.100062)
(-0.000101881 -0.000228649 0.100057)
(-0.000121828 -0.000225114 0.100052)
(-0.000142348 -0.000221272 0.100047)
(-0.000163194 -0.000217104 0.100042)
(-0.000183799 -0.000212411 0.100036)
(-0.000203126 -0.000206645 0.100016)
(-0.000219678 -0.00019864 0.099943)
(-0.000230699 -0.00018549 0.0996276)
(-0.00020697 -0.000148498 0.0978672)
(-0.000153951 -8.62133e-05 0.0896781)
(0.000146737 -8.89563e-05 0.0882883)
(0.000191772 -0.000155043 0.0971276)
(0.000218193 -0.000199705 0.0993996)
(0.000208123 -0.000215962 0.0998586)
(0.000192168 -0.00022604 0.0999889)
(0.000173236 -0.000233398 0.100034)
(0.000153136 -0.000239498 0.10005)
(0.000133101 -0.000244968 0.100058)
(0.000113715 -0.000249968 0.100064)
(9.50985e-05 -0.000254429 0.10007)
(7.71517e-05 -0.00025823 0.100075)
(5.96764e-05 -0.000261259 0.100081)
(4.24809e-05 -0.000263463 0.100086)
(2.54158e-05 -0.000264851 0.10009)
(8.39193e-06 -0.000265452 0.100093)
(-8.62365e-06 -0.0002653 0.100095)
(-2.56577e-05 -0.000264411 0.100095)
(-4.27515e-05 -0.000262791 0.100093)
(-5.99964e-05 -0.000260432 0.100089)
(-7.7547e-05 -0.000257371 0.100082)
(-9.56002e-05 -0.000253678 0.100072)
(-0.000114342 -0.000249468 0.100059)
(-0.00013385 -0.000244846 0.100045)
(-0.000153974 -0.000239797 0.100028)
(-0.000174104 -0.000234033 0.100005)
(-0.000192995 -0.00022677 0.0999599)
(-0.000208884 -0.000216344 0.099837)
(-0.000219053 -0.000199063 0.0993952)
(-0.000193292 -0.000152478 0.0971466)
(-0.000148764 -8.44265e-05 0.088314)
(0.000140566 -8.7173e-05 0.0864739)
(0.000175547 -0.000151237 0.0960044)
(0.000203464 -0.000208984 0.099038)
(0.000194402 -0.000230986 0.099715)
(0.000179035 -0.000243887 0.0999176)
(0.000160624 -0.000253063 0.0999887)
(0.000141362 -0.000260538 0.10002)
(0.000122612 -0.000267146 0.10004)
(0.000104832 -0.000273092 0.100057)
(8.793e-05 -0.000278304 0.100072)
(7.16181e-05 -0.000282631 0.100085)
(5.5616e-05 -0.000286001 0.100096)
(3.9699e-05 -0.000288407 0.100105)
(2.37548e-05 -0.0002899 0.100112)
(7.75909e-06 -0.000290545 0.100117)
(-8.26028e-06 -0.000290383 0.10012)
(-2.42495e-05 -0.000289432 0.100119)
(-4.01818e-05 -0.000287671 0.100116)
(-5.6096e-05 -0.000285074 0.100109)
(-7.21266e-05 -0.000281617 0.100097)
(-8.85009e-05 -0.000277343 0.10008)
(-0.000105515 -0.000272357 0.100058)
(-0.000123451 -0.000266801 0.100031)
(-0.000142368 -0.000260695 0.0999971)
(-0.000161779 -0.000253724 0.0999527)
(-0.000180297 -0.000244831 0.0998729)
(-0.000195762 -0.000231734 0.099671)
(-0.000205107 -0.000208634 0.0990091)
(-0.000178155 -0.000148546 0.0960061)
(-0.000143791 -8.181e-05 0.0864958)
(0.000144652 -5.68297e-05 0.0839631)
(0.000155448 -0.000142158 0.0940701)
(0.000184332 -0.000216931 0.0983684)
(0.000176725 -0.000242269 0.099449)
(0.000161171 -0.000257787 0.0997484)
(0.000143197 -0.00026903 0.0998544)
(0.000125595 -0.000278209 0.0999147)
(0.000109249 -0.000286249 0.0999616)
(9.40999e-05 -0.000293305 0.100001)
(7.96916e-05 -0.000299303 0.100034)
(6.55398e-05 -0.000304142 0.100061)
(5.12964e-05 -0.000307823 0.100082)
(3.68148e-05 -0.000310412 0.100098)
(2.20601e-05 -0.000312015 0.10011)
(7.11313e-06 -0.000312707 0.100118)
(-7.88904e-06 -0.00031255 0.100121)
(-2.28002e-05 -0.000311544 0.100119)
(-3.74929e-05 -0.000309666 0.100112)
(-5.19032e-05 -0.000306846 0.1001)
(-6.6073e-05 -0.000303028 0.10008)
(-8.01984e-05 -0.00029817 0.100052)
(-9.46384e-05 -0.000292331 0.100013)
(-0.000109889 -0.000285621 0.0999626)
(-0.000126416 -0.000278141 0.0998994)
(-0.000144247 -0.000269604 0.0998192)
(-0.000162466 -0.000258913 0.0996938)
(-0.000178332 -0.000243478 0.0993824)
(-0.000186545 -0.000217157 0.0983076)
(-0.000159052 -0.000139695 0.0940442)
(-0.000149588 -5.06229e-05 0.0839744)