/*--------------------------------*- C++ -*----------------------------------*\
| =========                 |                                                 |
| \\      /  F ield         | OpenFOAM: The Open Source CFD Toolbox           |
|  \\    /   O peration     | Version:  2312                                  |
|   \\  /    A nd           | Website:  www.openfoam.com                      |
|    \\/     M anipulation  |                                                 |
\*---------------------------------------------------------------------------*/
FoamFile
{
    version     2.0;
    format      ascii;
    arch        "LSB;label=32;scalar=64";
    class       volScalarField;
    location    "750";
    object      alphat;
}
// * * * * * * * * * * * * * * * * * * * * * * * * * * * * * * * * * * * * * //

dimensions      [1 -1 -1 0 0 0 0];

internalField   nonuniform List<scalar> 
27000
(
0.00394101
0.00669102
0.00935623
0.0117513
0.0140816
0.016256
0.0182285
0.0198936
0.021325
0.0225478
0.0235638
0.0243745
0.0249812
0.0253828
0.0255828
0.0255853
0.0253897
0.02499
0.0243861
0.0235777
0.0225634
0.0213414
0.0199096
0.0182428
0.016267
0.0140877
0.0117512
0.00935048
0.00668337
0.00393615
0.00573545
0.00126912
0.00515532
0.00907549
0.0131436
0.0170021
0.0206356
0.0240054
0.0270536
0.029759
0.0320891
0.0340089
0.0354853
0.0364957
0.0370061
0.0369983
0.0364743
0.0354573
0.0339764
0.0320561
0.0297271
0.0270264
0.0239857
0.0206284
0.0169991
0.0131416
0.00907458
0.00515033
0.00126576
0.00572901
0.00920976
0.00709171
0.014714
0.0264063
0.0370166
0.0463135
0.0547761
0.0626447
0.0697502
0.0759834
0.0812795
0.0855991
0.0888857
0.0911064
0.0922198
0.0921997
0.091053
0.0888178
0.0855399
0.0812695
0.0760228
0.0698342
0.0627644
0.0549437
0.04646
0.0371357
0.0265275
0.0147869
0.00707081
0.00920369
0.0121516
0.0108382
0.0264983
0.0532571
0.078542
0.0965144
0.110011
0.120999
0.130123
0.137607
0.143683
0.148459
0.152001
0.154349
0.155518
0.155511
0.154338
0.152012
0.148529
0.143853
0.137874
0.130436
0.12131
0.110283
0.0967107
0.078731
0.0535164
0.0266719
0.0108334
0.0121508
0.0149317
0.0144858
0.0373753
0.0770107
0.113788
0.139422
0.15623
0.168063
0.176771
0.183033
0.187883
0.191546
0.194183
0.195896
0.196742
0.196751
0.19593
0.194265
0.191701
0.188121
0.18332
0.176999
0.168299
0.156463
0.139608
0.11402
0.0773376
0.037573
0.014485
0.0149373
0.0175046
0.0184208
0.048197
0.0961714
0.138657
0.168018
0.185914
0.19711
0.204492
0.209421
0.212814
0.21518
0.216792
0.217801
0.218293
0.218305
0.217844
0.216878
0.215324
0.213015
0.209654
0.204727
0.19737
0.186244
0.168324
0.138979
0.0965307
0.0483884
0.0184171
0.0175155
0.0198454
0.022534
0.0589156
0.112351
0.156626
0.185879
0.203368
0.21356
0.219573
0.223172
0.22536
0.226707
0.227533
0.228012
0.228236
0.228246
0.228046
0.2276
0.226814
0.225506
0.223347
0.219766
0.213782
0.203631
0.186201
0.156954
0.112675
0.0590236
0.0225147
0.0198601
0.021939
0.026706
0.0693115
0.126208
0.170514
0.197954
0.213833
0.222597
0.227321
0.229822
0.231114
0.231762
0.232072
0.232211
0.232266
0.232273
0.232236
0.232119
0.231836
0.231216
0.229945
0.227464
0.222761
0.214024
0.198167
0.170691
0.126425
0.0693543
0.0266773
0.0219563
0.0237549
0.030809
0.0790176
0.138007
0.181316
0.206467
0.220339
0.227571
0.231145
0.232793
0.233464
0.233667
0.233673
0.233622
0.233585
0.23359
0.23364
0.233706
0.233717
0.233531
0.232874
0.231238
0.227673
0.220449
0.206564
0.181324
0.138086
0.0789802
0.0307626
0.023778
0.0253043
0.0346915
0.0878392
0.147903
0.189056
0.212351
0.224438
0.23032
0.232956
0.233975
0.234237
0.234181
0.234029
0.233887
0.233809
0.233813
0.2339
0.23405
0.234212
0.234277
0.234019
0.233002
0.230365
0.224481
0.212384
0.189068
0.147871
0.0877291
0.0346331
0.0253277
0.0265925
0.0381942
0.0955607
0.156189
0.195408
0.216627
0.227102
0.23186
0.23377
0.234347
0.234356
0.234163
0.233943
0.233772
0.233682
0.233684
0.233779
0.233955
0.234178
0.23437
0.234357
0.233773
0.231853
0.227085
0.216595
0.195346
0.156062
0.0953992
0.0381292
0.0266153
0.0276212
0.0411779
0.101966
0.162818
0.200344
0.219759
0.228877
0.232743
0.234113
0.234391
0.234249
0.233995
0.233759
0.233589
0.233502
0.233503
0.233591
0.23376
0.233994
0.234241
0.234371
0.234079
0.232691
0.228807
0.219665
0.200211
0.162626
0.101772
0.0411088
0.027643
0.0283913
0.0435254
0.106901
0.167803
0.203949
0.221959
0.230046
0.233254
0.234246
0.23433
0.234106
0.23383
0.2336
0.233443
0.233365
0.233364
0.23344
0.233593
0.233816
0.234079
0.234287
0.234182
0.233168
0.229936
0.221819
0.203766
0.16756
0.106687
0.0434539
0.0284123
0.0289038
0.045144
0.110256
0.171188
0.206319
0.223363
0.23076
0.233539
0.234292
0.234262
0.233995
0.233716
0.233497
0.233354
0.233284
0.233283
0.233348
0.233484
0.233692
0.233955
0.234202
0.234209
0.233431
0.230625
0.223197
0.20611
0.170924
0.110033
0.0450714
0.0289242
0.0291594
0.0459698
0.111952
0.172884
0.207492
0.224046
0.231098
0.233666
0.234305
0.234222
0.233938
0.23366
0.23345
0.233315
0.23325
0.233247
0.233307
0.233433
0.233631
0.233892
0.234155
0.234213
0.233548
0.230953
0.22387
0.207275
0.17262
0.111728
0.0458969
0.0291795
0.0291585
0.0459703
0.111954
0.172882
0.207489
0.224043
0.231095
0.233664
0.234305
0.234222
0.233939
0.233661
0.23345
0.233316
0.233251
0.233248
0.233308
0.233434
0.233632
0.233894
0.234156
0.234214
0.233549
0.230953
0.223869
0.207276
0.172622
0.111733
0.0458975
0.0291785
0.0289011
0.0451453
0.110263
0.171183
0.206312
0.223354
0.230752
0.233534
0.23429
0.234262
0.233996
0.233717
0.233499
0.233356
0.233286
0.233284
0.23335
0.233487
0.233695
0.233959
0.234205
0.234211
0.23343
0.230623
0.223196
0.206112
0.170931
0.110048
0.0450731
0.0289212
0.0283869
0.0435272
0.106913
0.167798
0.20394
0.221947
0.230035
0.233246
0.234242
0.234329
0.234105
0.23383
0.233599
0.233442
0.233363
0.233363
0.23344
0.233594
0.233818
0.234082
0.234289
0.234183
0.233166
0.229932
0.221817
0.203771
0.167578
0.106712
0.0434564
0.0284073
0.0276155
0.0411801
0.101986
0.162828
0.200341
0.219748
0.228865
0.232732
0.234105
0.234385
0.234244
0.233989
0.233751
0.23358
0.233493
0.233494
0.233584
0.233756
0.233992
0.23424
0.234369
0.234075
0.232685
0.2288
0.219661
0.200219
0.162653
0.101806
0.0411118
0.0276361
0.026586
0.0381962
0.0955886
0.156213
0.195416
0.216622
0.22709
0.231848
0.233758
0.234335
0.234342
0.234147
0.233924
0.233751
0.23366
0.233664
0.233761
0.23394
0.234166
0.234361
0.234348
0.233763
0.231842
0.227073
0.21659
0.195357
0.156096
0.09544
0.0381325
0.0266066
0.0252974
0.0346928
0.0878775
0.147947
0.189074
0.21235
0.224429
0.230306
0.232939
0.233954
0.234213
0.234151
0.233994
0.233849
0.23377
0.233775
0.233866
0.234022
0.234189
0.234257
0.234001
0.232984
0.230348
0.224467
0.212379
0.189084
0.147914
0.087775
0.0346363
0.0253174
0.0237481
0.0308088
0.0790661
0.138072
0.181323
0.206475
0.220335
0.227558
0.231125
0.232765
0.233428
0.233623
0.233621
0.233566
0.233527
0.233535
0.23359
0.233663
0.233682
0.233502
0.232849
0.231215
0.227653
0.220435
0.206565
0.181347
0.138144
0.0790286
0.0307637
0.0237666
0.0219337
0.0267034
0.0693714
0.126311
0.170574
0.19799
0.213843
0.22259
0.227302
0.229791
0.231072
0.231707
0.232006
0.232139
0.232192
0.232203
0.232173
0.232067
0.231795
0.231185
0.229922
0.227444
0.222746
0.214018
0.198182
0.17074
0.126506
0.069407
0.0266742
0.0219466
0.0198404
0.0225322
0.0589935
0.112497
0.156745
0.185933
0.203393
0.213567
0.219565
0.223151
0.225323
0.226653
0.227464
0.227933
0.228154
0.228169
0.22798
0.22755
0.226782
0.225489
0.223341
0.219767
0.213788
0.203643
0.186229
0.157039
0.112787
0.0590891
0.0225124
0.0198504
0.0174996
0.0184243
0.0483041
0.0963451
0.138809
0.168111
0.185958
0.197144
0.204506
0.209425
0.212801
0.215144
0.216734
0.217731
0.218218
0.218236
0.21779
0.216848
0.215321
0.213036
0.20969
0.20477
0.197423
0.186286
0.168414
0.139112
0.0966631
0.0484706
0.0184191
0.017506
0.0149266
0.014486
0.0374715
0.0771865
0.11396
0.139558
0.156339
0.168124
0.176801
0.183081
0.187908
0.19154
0.194149
0.195845
0.196688
0.196705
0.195903
0.194268
0.191744
0.188202
0.183423
0.177093
0.168414
0.156623
0.1398
0.11422
0.0774908
0.037644
0.0144829
0.0149286
0.0121464
0.0108345
0.0265723
0.0534059
0.0786991
0.0966707
0.110171
0.121144
0.130241
0.137695
0.143732
0.148465
0.151979
0.154315
0.155485
0.155489
0.154337
0.152042
0.148605
0.143977
0.138033
0.130618
0.121513
0.1105
0.0969337
0.0789397
0.0536671
0.0267251
0.0108274
0.0121434
0.00920502
0.00708493
0.0147375
0.0264676
0.0370953
0.046411
0.0548803
0.0627198
0.0698084
0.0760247
0.0812989
0.0855869
0.0888623
0.0910839
0.0922041
0.0921943
0.0910603
0.0888425
0.0855972
0.081352
0.0761211
0.0699422
0.0628818
0.0550814
0.0465901
0.037242
0.0265959
0.0148021
0.00706664
0.00919856
0.0057317
0.00126777
0.00514995
0.00907178
0.0131416
0.0170027
0.0206362
0.0240007
0.0270463
0.0297503
0.032079
0.033997
0.0354738
0.0364866
0.0369997
0.0369945
0.0364726
0.0354561
0.0339781
0.0320604
0.0297329
0.0270324
0.0239923
0.020638
0.0170065
0.0131447
0.00907253
0.00514483
0.00126451
0.00572599
0.00393896
0.0066877
0.00935278
0.0117486
0.0140797
0.0162546
0.0182274
0.0198926
0.0213239
0.0225464
0.0235619
0.0243721
0.024978
0.025378
0.025577
0.0255786
0.0253825
0.0249838
0.0243796
0.0235708
0.0225562
0.0213339
0.019902
0.0182353
0.01626
0.0140815
0.0117461
0.0093464
0.00668023
0.00393444
0.00359259
0.0061369
0.0087266
0.0110673
0.0133998
0.0156053
0.017643
0.0194048
0.0209477
0.0222832
0.0233969
0.0242843
0.0249507
0.0254
0.025627
0.0256243
0.0253925
0.0249427
0.0242733
0.0233818
0.022257
0.0209179
0.0193752
0.017619
0.0155906
0.0133968
0.0110773
0.00874617
0.00615961
0.00360684
0.00517325
0.00169636
0.00758502
0.0112436
0.0148547
0.0178649
0.0204038
0.0227786
0.0248974
0.0267214
0.0282644
0.0295192
0.0304726
0.0311044
0.031421
0.031426
0.0311174
0.030487
0.0295343
0.0282757
0.0267366
0.0249124
0.0228048
0.0205084
0.0179852
0.0149663
0.0113356
0.00763902
0.00174302
0.00519559
0.00874544
0.0105586
0.0131995
0.0165236
0.0216679
0.0271357
0.0322678
0.0368332
0.0410391
0.0448195
0.0480422
0.050515
0.0523612
0.0536025
0.0542475
0.0543006
0.0537573
0.0526012
0.0507943
0.0481625
0.0448814
0.0410607
0.0368195
0.0321499
0.0270417
0.0215976
0.0164642
0.0131886
0.0106989
0.00876811
0.0115994
0.0137475
0.0177475
0.0250674
0.0348227
0.045534
0.0553492
0.0641841
0.0721496
0.0793563
0.085413
0.0901416
0.0936006
0.0958886
0.0970735
0.0971866
0.0962165
0.0941013
0.0907149
0.0858614
0.0796144
0.0722875
0.0642592
0.055277
0.0453877
0.0346066
0.0249287
0.0177401
0.0139139
0.0116109
0.0144174
0.0161924
0.0224084
0.0348728
0.0526939
0.071539
0.0878702
0.101436
0.112642
0.122272
0.130009
0.135846
0.140004
0.142698
0.144049
0.14411
0.142868
0.140244
0.136091
0.13021
0.122365
0.112654
0.101246
0.0874964
0.0712256
0.0524134
0.034674
0.0222946
0.0163266
0.0144115
0.0171074
0.0183563
0.0281569
0.0460422
0.0712417
0.0973693
0.119897
0.136923
0.149262
0.158764
0.16614
0.17166
0.175566
0.178066
0.179299
0.179327
0.178142
0.175662
0.17174
0.166166
0.158697
0.149077
0.136501
0.119289
0.096836
0.0709476
0.0458863
0.0280119
0.0184686
0.0170895
0.0196165
0.0205702
0.0337265
0.0576928
0.0892288
0.120311
0.145396
0.163308
0.175797
0.184697
0.19119
0.195892
0.19916
0.201225
0.20223
0.202243
0.201257
0.199195
0.195909
0.191169
0.184622
0.175658
0.163078
0.145047
0.119863
0.088998
0.0576018
0.0336884
0.0205868
0.0195982
0.0219103
0.0230428
0.0389558
0.0688762
0.105258
0.138631
0.163866
0.181567
0.193546
0.201649
0.207214
0.211052
0.213632
0.215227
0.215993
0.215997
0.215237
0.213639
0.211046
0.207187
0.2016
0.193476
0.181468
0.163721
0.138472
0.10525
0.0689544
0.0389603
0.0230475
0.0218915
0.0240088
0.0253726
0.0439558
0.0792461
0.118963
0.152693
0.177261
0.194038
0.20508
0.212252
0.216922
0.219977
0.221942
0.22312
0.223673
0.223672
0.223116
0.221932
0.219957
0.216895
0.212221
0.205052
0.194012
0.177241
0.152728
0.119214
0.0795457
0.0440177
0.0253909
0.0239818
0.0258587
0.027468
0.0484707
0.0880988
0.130334
0.163614
0.187062
0.202612
0.212538
0.218738
0.222579
0.224955
0.226407
0.227242
0.227623
0.227619
0.22723
0.226388
0.22493
0.222555
0.218723
0.212542
0.20264
0.187124
0.163749
0.130613
0.0885775
0.0485945
0.0275005
0.025833
0.0274291
0.0292932
0.0523874
0.0952928
0.138883
0.171839
0.194195
0.208532
0.217371
0.222665
0.225779
0.227592
0.228633
0.2292
0.229449
0.229444
0.229187
0.228614
0.227573
0.225769
0.222674
0.217411
0.208611
0.194323
0.172046
0.139231
0.0957965
0.0525414
0.029336
0.0274057
0.0287031
0.0308099
0.055633
0.100957
0.145332
0.177887
0.199294
0.212587
0.220492
0.225025
0.227547
0.228917
0.229645
0.230012
0.230165
0.230161
0.230004
0.229635
0.228913
0.227559
0.225066
0.220572
0.212713
0.199476
0.178144
0.145701
0.101418
0.0557946
0.0308596
0.0286817
0.0296686
0.031982
0.0581387
0.105195
0.150009
0.182159
0.202801
0.215278
0.222463
0.226417
0.228497
0.229545
0.230049
0.230278
0.230365
0.230364
0.230277
0.230052
0.229559
0.228535
0.226489
0.222579
0.215443
0.20302
0.18244
0.150363
0.105582
0.0582984
0.0320362
0.0296487
0.0303171
0.0327805
0.059852
0.108087
0.153095
0.184908
0.205005
0.216922
0.223621
0.227189
0.228979
0.229818
0.230181
0.230323
0.230369
0.23037
0.230328
0.230195
0.229849
0.229038
0.227286
0.223763
0.217113
0.205245
0.185197
0.15343
0.108425
0.0600092
0.0328376
0.0302982
0.0306432
0.0331838
0.0607205
0.109545
0.154635
0.18626
0.206072
0.217703
0.224157
0.227531
0.229177
0.229914
0.230208
0.230308
0.230335
0.230338
0.230318
0.230229
0.229955
0.229248
0.227641
0.224313
0.217906
0.20632
0.186549
0.154957
0.10986
0.0608742
0.0332414
0.0306247
0.0306442
0.0331811
0.0607189
0.109552
0.154645
0.186269
0.206078
0.217706
0.224156
0.227528
0.229172
0.229907
0.2302
0.2303
0.230327
0.23033
0.23031
0.230222
0.229949
0.229244
0.227639
0.224313
0.217909
0.206324
0.186553
0.154961
0.109862
0.0608698
0.0332377
0.0306256
0.0303201
0.0327721
0.0598474
0.10811
0.153125
0.184934
0.205023
0.216931
0.223621
0.227181
0.228965
0.2298
0.23016
0.230301
0.230347
0.230349
0.230307
0.230176
0.229834
0.229027
0.22728
0.223765
0.217121
0.205258
0.185213
0.153444
0.108432
0.0599959
0.032826
0.0303011
0.0296734
0.0319687
0.0581323
0.105237
0.15006
0.182203
0.202832
0.215295
0.222466
0.226408
0.22848
0.229522
0.230023
0.230251
0.230337
0.230336
0.230251
0.230029
0.229541
0.228523
0.226486
0.222586
0.215461
0.203045
0.18247
0.15039
0.105601
0.0582801
0.0320185
0.0296537
0.0287095
0.0307925
0.0556261
0.101031
0.145405
0.177946
0.199337
0.212613
0.220502
0.225022
0.227535
0.228899
0.229624
0.22999
0.230143
0.23014
0.229984
0.229618
0.228902
0.227556
0.225073
0.220592
0.212745
0.199516
0.178187
0.145738
0.101442
0.0557721
0.0308369
0.0286888
0.0274366
0.0292729
0.0523782
0.0953866
0.138968
0.171907
0.194248
0.20857
0.217394
0.222676
0.225783
0.227592
0.228631
0.229198
0.229447
0.229443
0.229187
0.228617
0.227581
0.225784
0.222701
0.21745
0.208662
0.194379
0.172098
0.13927
0.0958185
0.0525155
0.0293101
0.0274151
0.0258668
0.0274455
0.0484514
0.0881976
0.13042
0.163686
0.187123
0.202664
0.21258
0.218772
0.22261
0.224986
0.226438
0.227275
0.227656
0.227653
0.227264
0.226422
0.224967
0.222597
0.218775
0.212606
0.202713
0.187195
0.163801
0.13064
0.0885849
0.0485654
0.0274735
0.0258446
0.024017
0.0253507
0.0439251
0.0793378
0.11907
0.152766
0.177331
0.194107
0.205147
0.212318
0.216991
0.22005
0.222019
0.2232
0.223754
0.223752
0.223192
0.222005
0.22003
0.216969
0.212301
0.205142
0.194108
0.177329
0.152781
0.119209
0.0795019
0.043982
0.0253661
0.0239953
0.0219159
0.0230268
0.0389202
0.0689412
0.105321
0.138684
0.163942
0.181656
0.19364
0.201751
0.207327
0.211175
0.213762
0.215361
0.216127
0.216127
0.21536
0.213753
0.211151
0.207289
0.201704
0.193587
0.181585
0.163832
0.138539
0.105232
0.0688742
0.0389123
0.0230305
0.0219022
0.0196222
0.0205654
0.0336786
0.0576933
0.089254
0.120351
0.145479
0.163409
0.175915
0.184836
0.191351
0.196069
0.199345
0.201414
0.202417
0.202422
0.201423
0.199343
0.196037
0.191283
0.184734
0.175779
0.163214
0.145187
0.119978
0.0890143
0.0575031
0.0336298
0.02058
0.0196101
0.0171182
0.0184166
0.0280602
0.0460115
0.0712481
0.0973991
0.119979
0.137027
0.14941
0.158953
0.166363
0.171897
0.175811
0.178313
0.179541
0.179556
0.178348
0.175836
0.171873
0.166266
0.158792
0.149188
0.136648
0.11949
0.0969808
0.0710068
0.0458581
0.0279284
0.0185222
0.017109
0.0144301
0.0162507
0.0223447
0.0348553
0.0526964
0.071597
0.0879845
0.101598
0.112892
0.122559
0.130333
0.136165
0.140333
0.143026
0.144365
0.144405
0.143131
0.140456
0.136226
0.130268
0.122415
0.11273
0.101354
0.0876671
0.071348
0.0524742
0.0346935
0.0222461
0.0163722
0.014431
0.011614
0.0138079
0.0177681
0.0250365
0.0348236
0.0455667
0.055414
0.0643173
0.0723887
0.0796695
0.0857807
0.090575
0.0940541
0.0963286
0.0974874
0.0975692
0.0965599
0.0943823
0.0908843
0.0858736
0.0795798
0.0722387
0.0642128
0.0553049
0.0454338
0.0346524
0.0249196
0.0177712
0.0139653
0.0116286
0.00875878
0.0106016
0.0132095
0.0164934
0.0216166
0.0270604
0.0321851
0.0368093
0.0410349
0.0448283
0.0480842
0.0506977
0.0525624
0.0537969
0.0544298
0.0544699
0.053911
0.0527231
0.0507923
0.0481109
0.0448175
0.040999
0.0367577
0.0320582
0.0269616
0.0215445
0.0164378
0.0131995
0.0107121
0.0087798
0.00518388
0.00170846
0.00760707
0.0112788
0.0149034
0.0179203
0.0204525
0.022772
0.0248783
0.0266969
0.028239
0.0294959
0.0304466
0.031074
0.0313868
0.0313891
0.0310794
0.03045
0.029494
0.0282336
0.0266938
0.0248761
0.0227826
0.0205422
0.0180254
0.0150009
0.0113575
0.00765699
0.00174509
0.00520357
0.00359829
0.0061457
0.0087362
0.011076
0.0134072
0.0156113
0.0176473
0.0194078
0.0209512
0.0222875
0.0234005
0.0242884
0.0249556
0.0254077
0.0256359
0.0256342
0.0254029
0.0249508
0.0242817
0.0233914
0.0222719
0.020934
0.0193913
0.0176357
0.0156068
0.0134111
0.0110886
0.00875499
0.00616582
0.00361064
0.00333655
0.00568437
0.00822016
0.0105722
0.0129461
0.0151951
0.0172601
0.0190249
0.0205559
0.0218756
0.0229883
0.0238899
0.0245701
0.0250224
0.025248
0.0252487
0.0250247
0.0245735
0.0238983
0.0229996
0.0218956
0.0205772
0.0190448
0.0172738
0.0152004
0.0129418
0.0105584
0.00819757
0.00566075
0.00332119
0.0048227
0.0023587
0.0105482
0.0157093
0.0207448
0.0252952
0.0292523
0.0323429
0.0346666
0.0364146
0.0377237
0.0386903
0.0393784
0.0398279
0.0400518
0.0400546
0.0398373
0.0393947
0.0387098
0.037744
0.0364319
0.0346847
0.0323543
0.02918
0.025184
0.0206196
0.0155932
0.0104204
0.00231665
0.00479913
0.00822213
0.0126492
0.017301
0.0212078
0.0241799
0.0272209
0.0302886
0.0334078
0.0362033
0.0385411
0.0404572
0.0420323
0.0432181
0.0440149
0.0444263
0.0444537
0.0440979
0.0433566
0.0422308
0.0407852
0.0389281
0.0366105
0.0337737
0.0304725
0.0273419
0.024277
0.0212781
0.0173181
0.0125501
0.00819635
0.0110132
0.0177266
0.0231885
0.0251403
0.0291219
0.0347916
0.0415805
0.0480503
0.053228
0.0573063
0.060781
0.0637065
0.0659849
0.0675284
0.0682892
0.0682481
0.067408
0.0657949
0.0634766
0.0605886
0.0572153
0.0532663
0.0482398
0.0417522
0.0350086
0.029385
0.0252817
0.0231442
0.0174289
0.0109915
0.0137862
0.021795
0.026363
0.0297761
0.0381233
0.0507077
0.0632259
0.0730352
0.0804075
0.0862659
0.0910667
0.0952448
0.0985617
0.10081
0.101933
0.101917
0.100765
0.0984942
0.0951601
0.0909161
0.0862223
0.0806293
0.0734855
0.0634233
0.0505956
0.0383362
0.0299333
0.0263467
0.0216154
0.0137842
0.0164428
0.0253712
0.0287113
0.0361242
0.0513923
0.0702571
0.0887026
0.103066
0.114156
0.122484
0.128771
0.133619
0.137227
0.139617
0.140798
0.140784
0.139577
0.137174
0.133571
0.128774
0.12266
0.114611
0.103871
0.0891152
0.0705585
0.0514326
0.0362834
0.0287791
0.0252598
0.0164557
0.0189276
0.0282662
0.0314687
0.0439365
0.0645734
0.0892856
0.112238
0.130302
0.143574
0.15313
0.159968
0.164866
0.168276
0.170442
0.1715
0.171516
0.170492
0.168369
0.165014
0.160191
0.15346
0.144001
0.130757
0.112761
0.089853
0.0649187
0.0441081
0.0317613
0.028269
0.0189439
0.0212145
0.0303879
0.0347493
0.0509588
0.0755057
0.104931
0.131309
0.151106
0.165261
0.175189
0.182051
0.186731
0.189829
0.191721
0.192629
0.192658
0.19181
0.18998
0.186946
0.182327
0.175518
0.165617
0.151448
0.13164
0.105224
0.0756449
0.050946
0.0350616
0.0303909
0.0212334
0.0232533
0.0320676
0.0380505
0.0570234
0.0849546
0.118439
0.146125
0.166374
0.180598
0.190354
0.196913
0.201228
0.203971
0.205588
0.206349
0.20638
0.205682
0.204126
0.201439
0.197168
0.190634
0.180876
0.166622
0.14631
0.118469
0.0847994
0.0568328
0.0383025
0.0320637
0.0232795
0.02504
0.0334387
0.0412309
0.0628993
0.0946644
0.129872
0.157562
0.177501
0.191287
0.200562
0.206647
0.210529
0.212911
0.214269
0.214894
0.214921
0.21435
0.213041
0.210699
0.206844
0.200766
0.191472
0.177636
0.157594
0.12969
0.0942718
0.0625279
0.0413219
0.0334318
0.0250679
0.0265609
0.0345613
0.0440958
0.0682111
0.103186
0.138852
0.166179
0.185502
0.198642
0.207317
0.212876
0.216322
0.218369
0.219497
0.220003
0.220023
0.219557
0.218461
0.216438
0.213
0.207431
0.198724
0.185524
0.166101
0.138609
0.102709
0.0678099
0.0441034
0.0345581
0.0265894
0.0277997
0.0354674
0.0465217
0.0726972
0.110101
0.145734
0.172504
0.19114
0.203614
0.211698
0.216764
0.219821
0.22158
0.222517
0.222924
0.222937
0.222553
0.221632
0.219879
0.216815
0.211724
0.203597
0.191058
0.172329
0.145422
0.109621
0.0723468
0.0465168
0.0354673
0.027828
0.0287416
0.0361603
0.0484435
0.0761682
0.115302
0.150749
0.17696
0.194974
0.206868
0.214451
0.21911
0.221854
0.223387
0.224178
0.224511
0.224517
0.224193
0.223404
0.221863
0.219098
0.214403
0.206768
0.194808
0.176709
0.150394
0.114852
0.075897
0.0484361
0.0361624
0.0287697
0.029375
0.0366289
0.0497731
0.0784624
0.118747
0.154029
0.179814
0.197366
0.208836
0.216059
0.22043
0.222956
0.224335
0.225028
0.225311
0.225312
0.225028
0.224327
0.222931
0.220375
0.21596
0.208681
0.197145
0.179518
0.153655
0.118326
0.0782417
0.0497649
0.036633
0.029403
0.0296926
0.0368646
0.0504532
0.0796167
0.120462
0.155654
0.181214
0.198523
0.209771
0.216807
0.221029
0.223442
0.224743
0.225386
0.225644
0.225642
0.225378
0.224723
0.2234
0.220952
0.216683
0.20959
0.198278
0.180901
0.155278
0.120062
0.0794178
0.0504446
0.0368696
0.0297205
0.0296907
0.0368617
0.0504539
0.0796129
0.120464
0.15566
0.181224
0.198536
0.209785
0.216822
0.221044
0.223456
0.224755
0.225397
0.225654
0.225653
0.22539
0.224736
0.223415
0.220969
0.216701
0.209609
0.198296
0.180918
0.155293
0.120073
0.0794172
0.0504461
0.0368665
0.0297185
0.0293694
0.0366208
0.0497754
0.0784496
0.118749
0.154046
0.179843
0.197405
0.20888
0.216105
0.220474
0.222996
0.22437
0.22506
0.225341
0.225342
0.225061
0.224365
0.222974
0.220424
0.216013
0.208736
0.197199
0.179569
0.153699
0.118359
0.0782405
0.04977
0.0366249
0.0293968
0.0287325
0.0361472
0.0484475
0.0761427
0.115302
0.150777
0.17701
0.195039
0.20694
0.214524
0.219178
0.221915
0.22344
0.224225
0.224554
0.224561
0.224242
0.22346
0.221929
0.219173
0.214485
0.206854
0.194893
0.176791
0.150466
0.114904
0.0758917
0.0484446
0.036149
0.0287594
0.0277877
0.0354506
0.0465281
0.072646
0.110095
0.145776
0.172579
0.191232
0.203712
0.211793
0.216851
0.219896
0.221642
0.22257
0.222972
0.222985
0.222607
0.221697
0.219957
0.216905
0.211825
0.203705
0.191169
0.172437
0.14552
0.109698
0.072347
0.0465293
0.0354497
0.0278137
0.0265467
0.0345411
0.0441122
0.0681502
0.103182
0.138915
0.166283
0.18562
0.198762
0.207429
0.212973
0.216402
0.218432
0.219548
0.220046
0.220066
0.219607
0.218524
0.216516
0.213095
0.207541
0.198846
0.185655
0.166235
0.138736
0.10281
0.0678204
0.0441206
0.0345373
0.0265713
0.0250241
0.0334172
0.0413184
0.0628607
0.0946744
0.129963
0.157695
0.177642
0.191421
0.200682
0.206746
0.210605
0.212966
0.214309
0.214924
0.214951
0.214388
0.213092
0.210768
0.206933
0.200874
0.1916
0.177781
0.157757
0.129872
0.0943898
0.0625515
0.0413446
0.0334086
0.0250465
0.0232367
0.0320512
0.0382191
0.0570174
0.0849898
0.118561
0.146275
0.166522
0.180735
0.19047
0.197003
0.201291
0.20401
0.20561
0.206361
0.206392
0.205702
0.20416
0.20149
0.197241
0.190732
0.181001
0.16677
0.146472
0.118649
0.0849233
0.0568857
0.0383457
0.0320386
0.0232555
0.021199
0.0303782
0.0349282
0.0509628
0.0755707
0.105091
0.131464
0.151248
0.165388
0.175287
0.182116
0.186768
0.189843
0.19172
0.192622
0.192652
0.191812
0.189995
0.186978
0.18238
0.175598
0.165732
0.151593
0.131798
0.105391
0.0757488
0.0510174
0.0351761
0.0303722
0.0212101
0.0189128
0.0282627
0.0316243
0.0439945
0.0646771
0.0895095
0.112382
0.130423
0.14367
0.153184
0.159979
0.164856
0.168255
0.170416
0.171476
0.171498
0.170484
0.168373
0.165031
0.160223
0.153513
0.144087
0.130885
0.112932
0.0900018
0.0649913
0.0441621
0.0318651
0.028262
0.0189207
0.0164243
0.0253086
0.0287471
0.0362243
0.0514893
0.070394
0.0888306
0.103192
0.114189
0.122427
0.128665
0.133525
0.137155
0.139563
0.140762
0.140764
0.139571
0.137178
0.133582
0.128787
0.122671
0.11464
0.103927
0.0892427
0.0706778
0.0515383
0.0363473
0.0288076
0.0252098
0.0164278
0.0137666
0.02171
0.0263319
0.0297636
0.0381548
0.0507363
0.0632955
0.0730761
0.0803368
0.0861042
0.0908788
0.0951467
0.0984926
0.100758
0.101895
0.101891
0.100747
0.0984828
0.0951552
0.0909163
0.0861899
0.0806065
0.0734928
0.0634867
0.0506256
0.0383086
0.0298699
0.0263238
0.0215621
0.0137591
0.0109919
0.0175825
0.0231177
0.0251354
0.0291368
0.034832
0.0417012
0.0481018
0.0531506
0.0571818
0.0606448
0.0635718
0.0658646
0.0674284
0.0682088
0.0681837
0.0673555
0.0657539
0.0634542
0.0606078
0.0572319
0.0532841
0.0482954
0.0418498
0.0349955
0.0293224
0.0252292
0.0230743
0.0173539
0.0109715
0.00820547
0.0126131
0.0172844
0.0212165
0.0242
0.0272594
0.0303668
0.0335918
0.0364167
0.0387669
0.0406813
0.0422018
0.0433833
0.0441795
0.0445895
0.0446138
0.0442522
0.0435055
0.0424102
0.0409571
0.0390819
0.0367468
0.0338956
0.0305705
0.027373
0.0242763
0.0212652
0.0172902
0.0125413
0.00818383
0.00481021
0.00234556
0.0104939
0.015661
0.0206865
0.0252368
0.0292082
0.0323478
0.0346737
0.0364195
0.0377256
0.0386894
0.0393759
0.0398239
0.0400463
0.0400476
0.0398284
0.0393842
0.0387013
0.0377388
0.036431
0.0346857
0.0323535
0.029146
0.0251452
0.0205843
0.0155679
0.0103918
0.00231369
0.00479076
0.00332893
0.00567187
0.00820517
0.0105575
0.0129317
0.0151815
0.0172474
0.0190128
0.0205426
0.0218613
0.0229742
0.0238749
0.0245541
0.0250053
0.0252305
0.0252313
0.0250075
0.024556
0.0238771
0.0229768
0.0218681
0.0205494
0.0190179
0.0172477
0.015176
0.0129202
0.0105407
0.00818401
0.00565136
0.00331618
0.00336394
0.00569633
0.00816433
0.0104578
0.0127306
0.0148681
0.016828
0.0185077
0.0199721
0.0212387
0.022303
0.0231605
0.0238069
0.0242396
0.024456
0.0244559
0.0242391
0.0238045
0.0231551
0.0222984
0.0212371
0.0199751
0.0185174
0.016845
0.014891
0.0127608
0.0104913
0.00819515
0.00572684
0.00338211
0.00491049
0.00325796
0.0120578
0.0185893
0.0248047
0.0303156
0.0350105
0.0388279
0.0419089
0.0443483
0.0462492
0.0477015
0.0487582
0.0494498
0.0497942
0.0498011
0.0494718
0.0488016
0.0477782
0.0463663
0.0445049
0.0421071
0.039086
0.0352691
0.0304971
0.0249267
0.0186441
0.0121049
0.00331611
0.00493505
0.00825276
0.0144423
0.0193596
0.0247501
0.0298026
0.0347532
0.039233
0.042864
0.0456299
0.0476817
0.0491765
0.050284
0.051095
0.0516289
0.0518944
0.0518981
0.0516449
0.0511461
0.0504158
0.0494004
0.0479622
0.045932
0.0431456
0.0394942
0.0348422
0.0297311
0.0245897
0.0192754
0.0144575
0.0082762
0.0110052
0.0209673
0.0275099
0.0303208
0.0333084
0.0369574
0.0403708
0.043609
0.0468848
0.0500174
0.0528177
0.0552726
0.057454
0.0590448
0.0598361
0.0597616
0.0588344
0.0572271
0.0553149
0.0530316
0.050351
0.0472558
0.0439037
0.0406021
0.0369918
0.0331769
0.0301347
0.0275647
0.0212132
0.0110317
0.0136632
0.0262023
0.0329923
0.0352912
0.0385263
0.0444908
0.0516304
0.0586397
0.0648082
0.0702873
0.0755728
0.0802708
0.0840858
0.0866807
0.0879409
0.0878784
0.086413
0.0835409
0.0795945
0.074935
0.0698124
0.0645954
0.0587611
0.0519127
0.0447821
0.0385837
0.0352911
0.0332449
0.0264078
0.0136772
0.0162018
0.0309114
0.0370367
0.0388356
0.0445921
0.0553551
0.0668402
0.0783614
0.0884509
0.0971085
0.104804
0.111185
0.116057
0.119311
0.120937
0.120956
0.119334
0.116034
0.111107
0.104655
0.0968732
0.0881422
0.0779243
0.0665058
0.0551
0.0447937
0.0390007
0.0373352
0.0310969
0.016202
0.0185734
0.0348242
0.0398157
0.0415897
0.0520213
0.0672149
0.0833799
0.0999384
0.114406
0.126223
0.135578
0.142548
0.147618
0.150939
0.152579
0.152572
0.150898
0.147509
0.142348
0.13526
0.12572
0.11379
0.0995054
0.0829973
0.0669255
0.0521012
0.0418584
0.0400471
0.0350265
0.0185633
0.0207603
0.0381191
0.0416589
0.0449036
0.0606527
0.0800757
0.100859
0.121459
0.138437
0.150992
0.16032
0.167136
0.171942
0.175023
0.176524
0.176506
0.174961
0.171817
0.166932
0.160017
0.150551
0.137765
0.120833
0.100514
0.0798782
0.0604637
0.0452008
0.0418889
0.0382687
0.0207405
0.0227387
0.0409477
0.0431195
0.0489317
0.06964
0.09218
0.11725
0.139691
0.156825
0.16935
0.178388
0.184823
0.18925
0.192031
0.193368
0.193351
0.191977
0.189153
0.184676
0.178182
0.169067
0.156448
0.139273
0.116925
0.0920817
0.0692719
0.0491018
0.043304
0.0410343
0.0227136
0.0244833
0.0433077
0.0444385
0.0535006
0.0772857
0.103133
0.130971
0.153454
0.170292
0.182423
0.19102
0.197012
0.201044
0.203529
0.20471
0.204698
0.203492
0.200982
0.196927
0.190913
0.18229
0.170131
0.153297
0.130898
0.103304
0.0772969
0.0532828
0.0445697
0.0433389
0.0244539
0.0259708
0.0452237
0.0456641
0.0582404
0.0838876
0.113015
0.141574
0.163749
0.180016
0.191588
0.19967
0.205202
0.208853
0.211065
0.212104
0.212096
0.211042
0.20882
0.205166
0.199638
0.191566
0.18001
0.16378
0.141697
0.113275
0.0841287
0.0579267
0.0457461
0.045215
0.0259392
0.0271826
0.0467183
0.0467428
0.0624203
0.0892725
0.120846
0.149527
0.171258
0.186909
0.197901
0.205471
0.210569
0.213873
0.215842
0.216758
0.216754
0.215833
0.213864
0.210571
0.205497
0.197961
0.187016
0.171429
0.149796
0.12123
0.0895815
0.0622243
0.0467875
0.0466841
0.0271501
0.028105
0.047824
0.0476348
0.0653418
0.0931597
0.126475
0.155147
0.176462
0.191594
0.202088
0.20922
0.213951
0.216968
0.218739
0.219555
0.219555
0.218741
0.216979
0.213984
0.209289
0.202207
0.191778
0.176729
0.155518
0.126949
0.0935456
0.0653564
0.0476641
0.0477705
0.0280718
0.0287278
0.0485704
0.0484714
0.067316
0.0956698
0.130063