/*--------------------------------*- C++ -*----------------------------------*\
| =========                 |                                                 |
| \\      /  F ield         | OpenFOAM: The Open Source CFD Toolbox           |
|  \\    /   O peration     | Version:  2312                                  |
|   \\  /    A nd           | Website:  www.openfoam.com                      |
|    \\/     M anipulation  |                                                 |
\*---------------------------------------------------------------------------*/
FoamFile
{
    version     2.0;
    format      ascii;
    arch        "LSB;label=32;scalar=64";
    class       volScalarField;
    location    "750";
    object      epsilon;
}
// * * * * * * * * * * * * * * * * * * * * * * * * * * * * * * * * * * * * * //

dimensions      [0 2 -3 0 0 0 0];

internalField   nonuniform List<scalar> 
27000
(
0.00151649
0.000223419
0.000110657
7.02634e-05
5.23251e-05
4.20732e-05
3.53622e-05
3.07026e-05
2.73465e-05
2.48875e-05
2.30792e-05
2.17669e-05
2.08511e-05
2.02622e-05
1.99766e-05
1.99824e-05
2.02792e-05
2.08741e-05
2.17989e-05
2.31214e-05
2.4941e-05
2.74121e-05
3.07804e-05
3.54502e-05
4.21651e-05
5.24013e-05
7.02741e-05
0.00011047
0.000222676
0.00151101
0.000149878
3.21934e-05
1.37939e-05
9.28486e-06
7.1964e-06
5.98299e-06
5.15605e-06
4.55205e-06
4.0999e-06
3.76167e-06
3.51083e-06
3.32806e-06
3.20012e-06
3.11786e-06
3.07766e-06
3.07808e-06
3.1189e-06
3.20107e-06
3.32879e-06
3.51092e-06
3.76072e-06
4.09724e-06
4.54723e-06
5.14881e-06
5.97288e-06
7.18011e-06
9.25282e-06
1.37186e-05
3.20211e-05
0.000149382
9.97639e-05
1.51253e-05
5.07787e-06
2.56677e-06
1.92376e-06
1.63298e-06
1.44932e-06
1.31847e-06
1.22098e-06
1.14769e-06
1.09299e-06
1.05285e-06
1.02462e-06
1.0064e-06
9.97308e-07
9.96984e-07
1.00537e-06
1.02273e-06
1.05e-06
1.08887e-06
1.14236e-06
1.21472e-06
1.31206e-06
1.44405e-06
1.62973e-06
1.92251e-06
2.56186e-06
5.03923e-06
1.50061e-05
9.95798e-05
6.66322e-05
1.01998e-05
2.82299e-06
1.39953e-06
1.00717e-06
8.62092e-07
7.84852e-07
7.33575e-07
6.96659e-07
6.69504e-07
6.49348e-07
6.34664e-07
6.24378e-07
6.17755e-07
6.14381e-07
6.14078e-07
6.16838e-07
6.22828e-07
6.32481e-07
6.46571e-07
6.66379e-07
6.93763e-07
7.3165e-07
7.84602e-07
8.63972e-07
1.0106e-06
1.4003e-06
2.80752e-06
1.0144e-05
6.66258e-05
4.93236e-05
7.22776e-06
2.03786e-06
1.04501e-06
7.57662e-07
6.48298e-07
5.96678e-07
5.66117e-07
5.45811e-07
5.32357e-07
5.22379e-07
5.15166e-07
5.1016e-07
5.06955e-07
5.05295e-07
5.05065e-07
5.06274e-07
5.09065e-07
5.13742e-07
5.20803e-07
5.30963e-07
5.45194e-07
5.66344e-07
5.97905e-07
6.50597e-07
7.60185e-07
1.04497e-06
2.02873e-06
7.20362e-06
4.93835e-05
3.87671e-05
5.6009e-06
1.62224e-06
8.77429e-07
6.5405e-07
5.65386e-07
5.25727e-07
5.04461e-07
4.91256e-07
4.82616e-07
4.76667e-07
4.7251e-07
4.6968e-07
4.67885e-07
4.66949e-07
4.66794e-07
4.67438e-07
4.68997e-07
4.71699e-07
4.759e-07
4.82132e-07
4.91283e-07
5.05029e-07
5.26654e-07
5.66667e-07
6.54946e-07
8.76029e-07
1.61523e-06
5.58998e-06
3.88416e-05
3.17642e-05
4.59167e-06
1.38019e-06
7.79106e-07
5.97907e-07
5.26348e-07
4.94059e-07
4.77727e-07
4.68435e-07
4.6265e-07
4.58829e-07
4.56237e-07
4.545e-07
4.53407e-07
4.52838e-07
4.52745e-07
4.53146e-07
4.54125e-07
4.5584e-07
4.58536e-07
4.62598e-07
4.68711e-07
4.78298e-07
4.94759e-07
5.26817e-07
5.97691e-07
7.76816e-07
1.37415e-06
4.58715e-06
3.18356e-05
2.68789e-05
3.91132e-06
1.22296e-06
7.15898e-07
5.62234e-07
5.03569e-07
4.77425e-07
4.64807e-07
4.58144e-07
4.54253e-07
4.51778e-07
4.50123e-07
4.49015e-07
4.48315e-07
4.47953e-07
4.47903e-07
4.48181e-07
4.48838e-07
4.49969e-07
4.51722e-07
4.5436e-07
4.58431e-07
4.65205e-07
4.77763e-07
5.03587e-07
5.61649e-07
7.13505e-07
1.21834e-06
3.91061e-06
2.69423e-05
2.3301e-05
3.42265e-06
1.11104e-06
6.7218e-07
5.38434e-07
4.89011e-07
4.67684e-07
4.57924e-07
4.53152e-07
4.50572e-07
4.49003e-07
4.47959e-07
4.47248e-07
4.46789e-07
4.46553e-07
4.4653e-07
4.46731e-07
4.47181e-07
4.47923e-07
4.49035e-07
4.50693e-07
4.5334e-07
4.581e-07
4.6771e-07
4.88725e-07
5.37769e-07
6.7018e-07
1.10816e-06
3.42587e-06
2.3368e-05
2.06764e-05
3.0637e-06
1.02802e-06
6.40684e-07
5.23786e-07
4.79854e-07
4.61772e-07
4.54018e-07
4.50554e-07
4.48859e-07
4.47893e-07
4.47254e-07
4.46805e-07
4.46506e-07
4.46351e-07
4.46342e-07
4.46486e-07
4.46789e-07
4.4726e-07
4.47933e-07
4.48928e-07
4.50615e-07
4.53998e-07
4.61562e-07
4.7933e-07
5.22815e-07
6.3917e-07
1.02657e-06
3.06877e-06
2.07325e-05
1.87569e-05
2.8001e-06
9.65963e-07
6.17033e-07
5.12502e-07
4.73629e-07
4.58049e-07
4.51715e-07
4.49125e-07
4.48001e-07
4.4742e-07
4.47044e-07
4.46768e-07
4.46576e-07
4.46475e-07
4.46473e-07
4.46572e-07
4.46767e-07
4.47051e-07
4.47433e-07
4.48003e-07
4.49079e-07
4.51562e-07
4.57715e-07
4.73045e-07
5.11642e-07
6.16031e-07
9.65509e-07
2.80581e-06
1.88035e-05
1.73732e-05
2.60932e-06
9.20382e-07
5.99606e-07
5.04235e-07
4.69307e-07
4.55651e-07
4.50331e-07
4.48315e-07
4.47544e-07
4.47198e-07
4.46984e-07
4.46821e-07
4.46701e-07
4.46637e-07
4.46636e-07
4.46699e-07
4.46818e-07
4.46977e-07
4.47177e-07
4.47491e-07
4.48199e-07
4.50111e-07
4.55286e-07
4.68777e-07
5.03581e-07
5.99029e-07
9.20576e-07
2.6152e-06
1.74127e-05
1.64145e-05
2.47665e-06
8.88285e-07
5.87239e-07
4.98457e-07
4.66397e-07
4.54131e-07
4.4951e-07
4.47861e-07
4.47298e-07
4.47087e-07
4.46969e-07
4.46874e-07
4.46801e-07
4.46759e-07
4.46758e-07
4.46796e-07
4.46863e-07
4.46945e-07
4.47039e-07
4.4721e-07
4.47708e-07
4.4927e-07
4.53785e-07
4.65958e-07
4.97999e-07
5.87004e-07
8.88884e-07
2.48249e-06
1.6449e-05
1.58096e-05
2.39272e-06
8.67757e-07
5.79103e-07
4.94755e-07
4.64595e-07
4.53235e-07
4.49055e-07
4.47623e-07
4.47175e-07
4.47034e-07
4.46967e-07
4.46911e-07
4.46864e-07
4.46836e-07
4.46834e-07
4.46857e-07
4.46894e-07
4.46932e-07
4.4697e-07
4.47068e-07
4.47456e-07
4.48817e-07
4.52922e-07
4.64234e-07
4.9443e-07
5.79056e-07
8.68568e-07
2.39845e-06
1.58412e-05
1.55165e-05
2.35194e-06
8.57722e-07
5.751e-07
4.92945e-07
4.63732e-07
4.52821e-07
4.48856e-07
4.47525e-07
4.47127e-07
4.47017e-07
4.46971e-07
4.46932e-07
4.46897e-07
4.46875e-07
4.46873e-07
4.46888e-07
4.46912e-07
4.46932e-07
4.46947e-07
4.47015e-07
4.47358e-07
4.48626e-07
4.52533e-07
4.63415e-07
4.92683e-07
5.75119e-07
8.58606e-07
2.35757e-06
1.55466e-05
1.55152e-05
2.35168e-06
8.57645e-07
5.75075e-07
4.92933e-07
4.63728e-07
4.52824e-07
4.48862e-07
4.47532e-07
4.47136e-07
4.47025e-07
4.46978e-07
4.46938e-07
4.46903e-07
4.46881e-07
4.46879e-07
4.46895e-07
4.46921e-07
4.46942e-07
4.4696e-07
4.4703e-07
4.47373e-07
4.48641e-07
4.52545e-07
4.6342e-07
4.92676e-07
5.7509e-07
8.58502e-07
2.35724e-06
1.55453e-05
1.58057e-05
2.39193e-06
8.67516e-07
5.79021e-07
4.94715e-07
4.64582e-07
4.5324e-07
4.49072e-07
4.47646e-07
4.47199e-07
4.47057e-07
4.46987e-07
4.46929e-07
4.4688e-07
4.46851e-07
4.46851e-07
4.46877e-07
4.46919e-07
4.46963e-07
4.47007e-07
4.4711e-07
4.47502e-07
4.48862e-07
4.52959e-07
4.64251e-07
4.94409e-07
5.78966e-07
8.68253e-07
2.39744e-06
1.58371e-05
1.6408e-05
2.47528e-06
8.87848e-07
5.87081e-07
4.98376e-07
4.66367e-07
4.54136e-07
4.49536e-07
4.47897e-07
4.47336e-07
4.47122e-07
4.46998e-07
4.46899e-07
4.46822e-07
4.4678e-07
4.46781e-07
4.46825e-07
4.46901e-07
4.46992e-07
4.47097e-07
4.47277e-07
4.47782e-07
4.49343e-07
4.53848e-07
4.65989e-07
4.97965e-07
5.86836e-07
8.88351e-07
2.48075e-06
1.64417e-05
1.73641e-05
2.60728e-06
9.19684e-07
5.99308e-07
5.0409e-07
4.69251e-07
4.55651e-07
4.50362e-07
4.4836e-07
4.4759e-07
4.47238e-07
4.47016e-07
4.46845e-07
4.46721e-07
4.46656e-07
4.46659e-07
4.46731e-07
4.46861e-07
4.47034e-07
4.47249e-07
4.47576e-07
4.48295e-07
4.50209e-07
4.55372e-07
4.68825e-07
5.03542e-07
5.98798e-07
9.19816e-07
2.61262e-06
1.74016e-05
1.87453e-05
2.79723e-06
9.64918e-07
6.16569e-07
5.12281e-07
4.73544e-07
4.58042e-07
4.51748e-07
4.49172e-07
4.48045e-07
4.47454e-07
4.47065e-07
4.4678e-07
4.46582e-07
4.46482e-07
4.46486e-07
4.46596e-07
4.46806e-07
4.47106e-07
4.47507e-07
4.48094e-07
4.49184e-07
4.51674e-07
4.57817e-07
4.73106e-07
5.11599e-07
6.1574e-07
9.64502e-07
2.80225e-06
1.87876e-05
2.06621e-05
3.05978e-06
1.02649e-06
6.40008e-07
5.23489e-07
4.79743e-07
4.61757e-07
4.54047e-07
4.50593e-07
4.48888e-07
4.47904e-07
4.47248e-07
4.46787e-07
4.46483e-07
4.46331e-07
4.46332e-07
4.4649e-07
4.4681e-07
4.473e-07
4.47992e-07
4.49006e-07
4.5071e-07
4.54102e-07
4.61659e-07
4.79386e-07
5.22755e-07
6.38804e-07
1.02528e-06
3.06402e-06
2.07104e-05
2.32844e-05
3.41741e-06
1.10887e-06
6.71255e-07
5.38136e-07
4.8888e-07
4.67655e-07
4.57936e-07
4.53163e-07
4.5056e-07
4.48964e-07
4.47898e-07
4.47174e-07
4.46714e-07
4.46485e-07
4.46476e-07
4.46696e-07
4.47166e-07
4.47927e-07
4.49058e-07
4.50733e-07
4.53393e-07
4.5816e-07
4.67763e-07
4.88735e-07
5.37663e-07
6.69685e-07
1.10653e-06
3.41983e-06
2.33385e-05
2.68629e-05
3.9044e-06
1.21991e-06
7.14628e-07
5.61768e-07
5.03379e-07
4.77362e-07
4.64774e-07
4.58088e-07
4.54157e-07
4.51644e-07
4.49965e-07
4.48848e-07
4.48154e-07
4.47807e-07
4.47779e-07
4.48079e-07
4.48759e-07
4.49908e-07
4.51677e-07
4.54326e-07
4.58401e-07
4.65173e-07
4.77714e-07
5.03475e-07
5.61371e-07
7.12742e-07
1.21616e-06
3.90326e-06
2.69106e-05
3.17443e-05
4.58181e-06
1.37595e-06
7.77427e-07
5.97233e-07
5.26111e-07
4.93931e-07
4.77592e-07
4.68248e-07
4.62399e-07
4.58531e-07
4.55919e-07
4.54185e-07
4.53112e-07
4.52572e-07
4.52509e-07
4.52938e-07
4.5394e-07
4.55671e-07
4.58376e-07
4.62438e-07
4.68542e-07
4.78106e-07
4.9453e-07
5.26512e-07
5.97085e-07
7.75553e-07
1.37091e-06
4.57694e-06
3.17936e-05
3.87393e-05
5.58676e-06
1.61661e-06
8.75279e-07
6.53148e-07
5.64968e-07
5.2545e-07
5.04111e-07
4.90825e-07
4.82091e-07
4.76094e-07
4.71938e-07
4.69137e-07
4.67386e-07
4.66496e-07
4.66384e-07
4.67062e-07
4.68642e-07
4.7135e-07
4.75546e-07
4.81766e-07
4.90892e-07
5.04573e-07
5.26153e-07
5.659e-07
6.53736e-07
8.73952e-07
1.6104e-06
5.57552e-06
3.87846e-05
4.92808e-05
7.2069e-06
2.02971e-06
1.04192e-06
7.56258e-07
6.47422e-07
5.95891e-07
5.65351e-07
5.44966e-07
5.31333e-07
5.21349e-07
5.14194e-07
5.09269e-07
5.06144e-07
5.04552e-07
5.04376e-07
5.0562e-07
5.08424e-07
5.13084e-07
5.20103e-07
5.30222e-07
5.44452e-07
5.65449e-07
5.96674e-07
6.48913e-07
7.5777e-07
1.04116e-06
2.02095e-06
7.18307e-06
4.93052e-05
6.65562e-05
1.01661e-05
2.80945e-06
1.39426e-06
1.0045e-06
8.60005e-07
7.82791e-07
7.3145e-07
6.94537e-07
6.67486e-07
6.47517e-07
6.33042e-07
6.22926e-07
6.16427e-07
6.13138e-07
6.12891e-07
6.15676e-07
6.21655e-07
6.31234e-07
6.45188e-07
6.64837e-07
6.92013e-07
7.29596e-07
7.8209e-07
8.60677e-07
1.00599e-06
1.39296e-06
2.79371e-06
1.01143e-05
6.6514e-05
9.96251e-05
1.50751e-05
5.0523e-06
2.55622e-06
1.91699e-06
1.62719e-06
1.44389e-06
1.31335e-06
1.21638e-06
1.14367e-06
1.08952e-06
1.04991e-06
1.02195e-06
1.0039e-06
9.94879e-07
9.94569e-07
1.00293e-06
1.02021e-06
1.04721e-06
1.08579e-06
1.1389e-06
1.21073e-06
1.30734e-06
1.43836e-06
1.62249e-06
1.91287e-06
2.54777e-06
5.01356e-06
1.49682e-05
9.94264e-05
0.00014962
3.21276e-05
1.37551e-05
9.26081e-06
7.17907e-06
5.96901e-06
5.14435e-06
4.54239e-06
4.09184e-06
3.75482e-06
3.5048e-06
3.32261e-06
3.19492e-06
3.11255e-06
3.07214e-06
3.07223e-06
3.11267e-06
3.19454e-06
3.32154e-06
3.50275e-06
3.75136e-06
4.08637e-06
4.5343e-06
5.13306e-06
5.95367e-06
7.15579e-06
9.22218e-06
1.36808e-05
3.19669e-05
0.000149146
0.00151436
0.000223124
0.000110552
7.02262e-05
5.23116e-05
4.20689e-05
3.53611e-05
3.07026e-05
2.73463e-05
2.48865e-05
2.30771e-05
2.17636e-05
2.08463e-05
2.02546e-05
1.99671e-05
1.99711e-05
2.02662e-05
2.0862e-05
2.1785e-05
2.31049e-05
2.49211e-05
2.73877e-05
3.075e-05
3.54122e-05
4.21175e-05
5.23408e-05
7.01932e-05
0.000110341
0.000222412
0.00150932
0.00114934
0.000172495
8.98166e-05
5.87101e-05
4.51041e-05
3.72427e-05
3.20894e-05
2.85244e-05
2.59528e-05
2.4055e-05
2.2621e-05
2.15548e-05
2.08057e-05
2.03463e-05
2.01242e-05
2.01174e-05
2.03268e-05
2.07837e-05
2.15232e-05
2.2574e-05
2.3963e-05
2.58326e-05
2.83813e-05
3.19413e-05
3.7115e-05
4.50468e-05
5.88388e-05
9.03886e-05
0.000174402
0.00116306
0.000109979
3.23208e-05
2.09112e-05
1.46784e-05
1.16928e-05
9.75313e-06
8.31796e-06
7.26099e-06
6.46503e-06
5.86421e-06
5.41427e-06
5.08579e-06
4.8577e-06
4.71585e-06
4.6479e-06
4.64758e-06
4.71536e-06
4.85869e-06
5.08909e-06
5.42118e-06
5.8749e-06
6.48599e-06
7.30002e-06
8.39016e-06
9.85212e-06
1.18279e-05
1.48744e-05
2.12009e-05
3.31897e-05
0.000111431
8.5381e-05
2.31393e-05
1.16361e-05
5.85683e-06
3.74793e-06
2.91537e-06
2.45639e-06
2.13249e-06
1.88848e-06
1.70347e-06
1.56572e-06
1.46868e-06
1.40207e-06
1.36075e-06
1.34137e-06
1.34229e-06
1.36365e-06
1.40741e-06
1.47729e-06
1.58228e-06
1.7271e-06
1.91975e-06
2.1701e-06
2.49538e-06
2.94692e-06
3.76582e-06
5.8805e-06
1.17743e-05
2.35691e-05
8.6036e-05
5.79187e-05
1.67814e-05
6.69201e-06
2.78917e-06
1.53418e-06
1.1399e-06
9.83304e-07
8.91945e-07
8.24333e-07
7.71183e-07
7.29948e-07
6.99308e-07
6.77801e-07
6.64294e-07
6.58041e-07
6.58673e-07
6.66252e-07
6.81268e-07
7.04673e-07
7.38193e-07
7.82582e-07
8.37242e-07
9.02773e-07
9.89941e-07
1.13824e-06
1.52192e-06
2.78133e-06
6.77816e-06
1.70607e-05
5.80773e-05
4.43794e-05
1.18627e-05
4.22154e-06
1.68443e-06
9.3424e-07
6.89519e-07
5.99161e-07
5.56992e-07
5.30582e-07
5.0945e-07
4.93143e-07
4.81051e-07
4.72485e-07
4.67061e-07
4.64646e-07
4.65196e-07
4.6873e-07
4.75318e-07
4.85061e-07
4.98116e-07
5.14996e-07
5.35464e-07
5.60188e-07
5.99489e-07
6.8591e-07
9.27402e-07
1.68595e-06
4.28159e-06
1.20112e-05
4.43133e-05
3.61762e-05
8.9197e-06
2.92402e-06
1.21564e-06
7.15858e-07
5.39729e-07
4.66746e-07
4.3545e-07
4.21274e-07
4.12605e-07
4.06159e-07
4.01215e-07
3.97602e-07
3.9529e-07
3.94304e-07
3.94667e-07
3.96373e-07
3.99369e-07
4.03552e-07
4.08799e-07
4.15098e-07
4.23006e-07
4.36182e-07
4.66253e-07
5.38052e-07
7.15242e-07
1.22399e-06
2.97099e-06
9.00164e-06
3.60549e-05
3.06754e-05
7.06147e-06
2.20088e-06
9.70372e-07
6.10229e-07
4.71861e-07
4.12626e-07
3.87225e-07
3.76236e-07
3.71084e-07
3.68153e-07
3.66166e-07
3.64756e-07
3.63864e-07
3.63516e-07
3.63733e-07
3.64498e-07
3.65744e-07
3.67372e-07
3.69343e-07
3.71943e-07
3.76457e-07
3.86729e-07
4.11814e-07
4.71952e-07
6.12697e-07
9.81345e-07
2.23534e-06
7.09518e-06
3.05863e-05
2.67753e-05
5.88309e-06
1.77609e-06
8.26016e-07
5.48099e-07
4.36859e-07
3.88249e-07
3.66057e-07
3.56225e-07
3.52061e-07
3.503e-07
3.49486e-07
3.4905e-07
3.48818e-07
3.48761e-07
3.48876e-07
3.49146e-07
3.49529e-07
3.50004e-07
3.50698e-07
3.52168e-07
3.55954e-07
3.65541e-07
3.87992e-07
4.37831e-07
5.51764e-07
8.36041e-07
1.79925e-06
5.89884e-06
2.67048e-05
2.40616e-05
5.09796e-06
1.51396e-06
7.35506e-07
5.07591e-07
4.16626e-07
3.7553e-07
3.56042e-07
3.47059e-07
3.4324e-07
3.41815e-07
3.41388e-07
3.4132e-07
3.41356e-07
3.41412e-07
3.41464e-07
3.41496e-07
3.41503e-07
3.41541e-07
3.41853e-07
3.43109e-07
3.468e-07
3.55876e-07
3.7591e-07
4.18213e-07
5.10999e-07
7.42649e-07
1.52817e-06
5.10115e-06
2.39802e-05
2.20715e-05
4.55631e-06
1.34328e-06
6.75422e-07
4.79051e-07
4.0285e-07
3.67795e-07
3.508e-07
3.42723e-07
3.39176e-07
3.37842e-07
3.37492e-07
3.37509e-07
3.37614e-07
3.37694e-07
3.3771e-07
3.37653e-07
3.37545e-07
3.37488e-07
3.3777e-07
3.39051e-07
3.42642e-07
3.50981e-07
3.68583e-07
4.04679e-07
4.82353e-07
6.7985e-07
1.35105e-06
4.55257e-06
2.20065e-05
2.05894e-05
4.17441e-06
1.2281e-06
6.34322e-07
4.60148e-07
3.93122e-07
3.62539e-07
3.47685e-07
3.40525e-07
3.3729e-07
3.36014e-07
3.35646e-07
3.35637e-07
3.35724e-07
3.3579e-07
3.3579e-07
3.35721e-07
3.35619e-07
3.35602e-07
3.35951e-07
3.37253e-07
3.40619e-07
3.48082e-07
3.63472e-07
3.94828e-07
4.62727e-07
6.37126e-07
1.23193e-06
4.16745e-06
2.05379e-05
1.95011e-05
3.90565e-06
1.14953e-06
6.05831e-07
4.4684e-07
3.86122e-07
3.58773e-07
3.4562e-07
3.39282e-07
3.3637e-07
3.35168e-07
3.34773e-07
3.34713e-07
3.34757e-07
3.34797e-07
3.34793e-07
3.34743e-07
3.34689e-07
3.34742e-07
3.35154e-07
3.36423e-07
3.3949e-07
3.46107e-07
3.59676e-07
3.87546e-07
4.48735e-07
6.0758e-07
1.15103e-06
3.89729e-06
1.94591e-05
1.87354e-05
3.72246e-06
1.09713e-06
5.86471e-07
4.3762e-07
3.81185e-07
3.56095e-07
3.44194e-07
3.38506e-07
3.35879e-07
3.34759e-07
3.3435e-07
3.34247e-07
3.3425e-07
3.34267e-07
3.34264e-07
3.34241e-07
3.34237e-07
3.3435e-07
3.34795e-07
3.35997e-07
3.38774e-07
3.44693e-07
3.56902e-07
3.82335e-07
4.39021e-07
5.87625e-07
1.09728e-06
3.71356e-06
1.86996e-05
1.82475e-05
3.6082e-06
1.06484e-06
5.74124e-07
4.31721e-07
3.77995e-07
3.54347e-07
3.43266e-07
3.38021e-07
3.35601e-07
3.3455e-07
3.34139e-07
3.34008e-07
3.33983e-07
3.33985e-07
3.33984e-07
3.33982e-07
3.34014e-07
3.34165e-07
3.34621e-07
3.35757e-07
3.38312e-07
3.43748e-07
3.55062e-07
3.78946e-07
4.32803e-07
5.74905e-07
1.06428e-06
3.59915e-06
1.82153e-05
1.80106e-05
3.55347e-06
1.04949e-06
5.68179e-07
4.28844e-07
3.76423e-07
3.53475e-07
3.42797e-07
3.37775e-07
3.35463e-07
3.34449e-07
3.34039e-07
3.33895e-07
3.33856e-07
3.3385e-07
3.33851e-07
3.33861e-07
3.33911e-07
3.3408e-07
3.34538e-07
3.35634e-07
3.38071e-07
3.4326e-07
3.54134e-07
3.77267e-07
4.29769e-07
5.68785e-07
1.04868e-06
3.54454e-06
1.79799e-05
1.80122e-05
3.55408e-06
1.04966e-06
5.68213e-07
4.28852e-07
3.76419e-07
3.53464e-07
3.42782e-07
3.37758e-07
3.35444e-07
3.34429e-07
3.34018e-07
3.33873e-07
3.33832e-07
3.33826e-07
3.33826e-07
3.33837e-07
3.33888e-07
3.34057e-07
3.34516e-07
3.35612e-07
3.38048e-07
3.43236e-07
3.5411e-07
3.77249e-07
4.2977e-07
5.68836e-07
1.04895e-06
3.54537e-06
1.79814e-05
1.82524e-05
3.61008e-06
1.06538e-06
5.74241e-07
4.31757e-07
3.77991e-07
3.54319e-07
3.43224e-07
3.37971e-07
3.35547e-07
3.34491e-07
3.34076e-07
3.33942e-07
3.33914e-07
3.33914e-07
3.33912e-07
3.33912e-07
3.33946e-07
3.34099e-07
3.34557e-07
3.35693e-07
3.38245e-07
3.43676e-07
3.54991e-07
3.78891e-07
4.32802e-07
5.75052e-07
1.06509e-06
3.60171e-06
1.82198e-05
1.87436e-05
3.72577e-06
1.09815e-06
5.86717e-07
4.37716e-07
3.81199e-07
3.56061e-07
3.44132e-07
3.38427e-07
3.35792e-07
3.34666e-07
3.34252e-07
3.34145e-07
3.34143e-07
3.34157e-07
3.34153e-07
3.34131e-07
3.3413e-07
3.34246e-07
3.34693e-07
3.35894e-07
3.38664e-07
3.44576e-07
3.56783e-07
3.82239e-07
4.39007e-07
5.87835e-07
1.09863e-06
3.71791e-06
1.87078e-05
1.95126e-05
3.91069e-06
1.15126e-06
6.06245e-07
4.47038e-07
3.86181e-07
3.58744e-07
3.45542e-07
3.39179e-07
3.36257e-07
3.35051e-07
3.34652e-07
3.34589e-07
3.34627e-07
3.34663e-07
3.34656e-07
3.34606e-07
3.34554e-07
3.34611e-07
3.35024e-07
3.36289e-07
3.39346e-07
3.45949e-07
3.59511e-07
3.87407e-07
4.48707e-07
6.07876e-07
1.15298e-06
3.90374e-06
1.94718e-05
2.06043e-05
4.18169e-06
1.23091e-06
6.3506e-07
4.60516e-07
3.93247e-07
3.62521e-07
3.47593e-07
3.40405e-07
3.37164e-07
3.35891e-07
3.35525e-07
3.35515e-07
3.35596e-07
3.35655e-07
3.3565e-07
3.35578e-07
3.35475e-07
3.35459e-07
3.35808e-07
3.37103e-07
3.40453e-07
3.47894e-07
3.63269e-07
3.9465e-07
4.62683e-07
6.37524e-07
1.23462e-06
4.17645e-06
2.05566e-05
2.20898e-05
4.56674e-06
1.34786e-06
6.76671e-07
4.79628e-07
4.03034e-07
3.67774e-07
3.50691e-07
3.42596e-07
3.39062e-07
3.37748e-07
3.37409e-07
3.37428e-07
3.37525e-07
3.37595e-07
3.376e-07
3.37535e-07
3.37421e-07
3.37361e-07
3.3764e-07
3.38909e-07
3.42479e-07
3.50785e-07
3.6836e-07
4.04479e-07
4.82317e-07
6.80395e-07
1.35467e-06
4.56479e-06
2.20331e-05
2.40828e-05
5.11271e-06
1.52126e-06
7.37467e-07
5.08259e-07
4.16817e-07
3.75477e-07
3.5592e-07
3.4696e-07
3.43193e-07
3.41812e-07
3.41408e-07
3.41341e-07
3.41363e-07
3.41399e-07
3.41431e-07
3.41446e-07
3.41441e-07
3.41471e-07
3.41775e-07
3.43017e-07
3.46681e-07
3.55711e-07
3.75697e-07
4.18015e-07
5.11044e-07
7.4364e-07
1.5332e-06
5.1174e-06
2.40168e-05
2.67933e-05
5.90411e-06
1.78746e-06
8.28961e-07
5.48996e-07
4.37021e-07
3.88156e-07
3.6597e-07
3.56245e-07
3.52189e-07
3.50498e-07
3.49709e-07
3.49262e-07
3.49e-07
3.48904e-07
3.48984e-07
3.49225e-07
3.49588e-07
3.5005e-07
3.50733e-07
3.52189e-07
3.55946e-07
3.65477e-07
3.87854e-07
4.37674e-07
5.51916e-07
8.37678e-07
1.80694e-06
5.92067e-06
2.67407e-05
3.06987e-05
7.09559e-06
2.21882e-06
9.74414e-07
6.11081e-07
4.71925e-07
4.1255e-07
3.87331e-07
3.7657e-07
3.71584e-07
3.68726e-07
3.66743e-07
3.65289e-07
3.6433e-07
3.63912e-07
3.6407e-07
3.64791e-07
3.66009e-07
3.67622e-07
3.69586e-07
3.72173e-07
3.76662e-07
3.86877e-07
4.11867e-07
4.71905e-07
6.12973e-07
9.84178e-07
2.24832e-06
7.13e-06
3.06381e-05
3.62365e-05
8.98408e-06
2.95019e-06
1.22058e-06
7.16607e-07
5.39831e-07
4.66987e-07
4.36148e-07
4.22287e-07
4.13794e-07
4.07366e-07
4.02365e-07
3.98635e-07
3.96191e-07
3.95087e-07
3.95358e-07
3.97001e-07
3.99968e-07
4.04152e-07
4.09414e-07
4.15708e-07
4.23598e-07
4.36706e-07
4.66581e-07
5.38456e-07
7.16e-07
1.22755e-06
2.9913e-06
9.06549e-06
3.61708e-05
4.44847e-05
1.19468e-05
4.25592e-06
1.69095e-06
9.35258e-07
6.90118e-07
6.00382e-07
5.58907e-07
5.32813e-07
5.1181e-07
4.95323e-07
4.83082e-07
4.74256e-07
4.68591e-07
4.65988e-07
4.66406e-07
4.69862e-07
4.76436e-07
4.86255e-07
4.99461e-07
5.16366e-07
5.36806e-07
5.61549e-07
6.00744e-07
6.87455e-07
9.3022e-07
1.69338e-06
4.31005e-06
1.20862e-05
4.44834e-05
5.81194e-05
1.6904e-05
6.74665e-06
2.80395e-06
1.53791e-06
1.14377e-06
9.88323e-07
8.97429e-07
8.29712e-07
7.75788e-07
7.33711e-07
7.02276e-07
6.80245e-07
6.66399e-07
6.5992e-07
6.60419e-07
6.67944e-07
6.83017e-07
7.06762e-07
7.41197e-07
7.8606e-07
8.41263e-07
9.07258e-07
9.94311e-07
1.14352e-06
1.52993e-06
2.8027e-06
6.82724e-06
1.71519e-05
5.83296e-05
8.57455e-05
2.32915e-05
1.1706e-05
5.88582e-06
3.76994e-06
2.93798e-06
2.47921e-06
2.15262e-06
1.90493e-06
1.71675e-06
1.5763e-06
1.47518e-06
1.40752e-06
1.36564e-06
1.34596e-06
1.34675e-06
1.36815e-06
1.41219e-06
1.48434e-06
1.59058e-06
1.73659e-06
1.93102e-06
2.18445e-06
2.51331e-06
2.9679e-06
3.79053e-06
5.91236e-06
1.1825e-05
2.36474e-05
8.63625e-05
0.000110593
3.25747e-05
2.10218e-05
1.47619e-05
1.17634e-05
9.81344e-06
8.36853e-06
7.29437e-06
6.49e-06
5.88476e-06
5.43185e-06
5.10079e-06
4.87143e-06
4.72944e-06
4.66179e-06
4.66202e-06
4.73056e-06
4.87475e-06
5.10726e-06
5.44187e-06
5.89914e-06
6.51387e-06
7.33518e-06
8.44099e-06
9.91019e-06
1.18909e-05
1.49376e-05
2.12725e-05
3.32813e-05
0.0001119
0.00115441
0.0001732
9.00843e-05
5.88293e-05
4.51633e-05
3.72726e-05
3.21029e-05
2.85298e-05
2.59591e-05
2.4063e-05
2.26277e-05
2.15627e-05
2.08152e-05
2.03602e-05
2.01405e-05
2.01359e-05
2.03472e-05
2.08006e-05
2.15422e-05
2.25977e-05
2.40057e-05
2.58859e-05
2.84456e-05
3.20246e-05
3.72218e-05
4.51801e-05
5.90062e-05
9.06408e-05
0.000174875
0.00116639
0.000917989
0.000136701
7.49781e-05
5.11676e-05
4.06866e-05
3.43951e-05
3.00532e-05
2.68838e-05
2.45202e-05
2.27525e-05
2.14568e-05
2.05208e-05
1.98648e-05
1.94386e-05
1.92309e-05
1.92337e-05
1.94471e-05
1.98775e-05
2.05482e-05
2.14987e-05
2.28308e-05
2.4617e-05
2.6993e-05
3.0155e-05
3.44656e-05
4.0684e-05
5.1005e-05
7.43888e-05
0.000134959
0.000904813
8.88631e-05
3.14466e-05
2.14691e-05
1.6232e-05
1.37906e-05
1.23691e-05
1.1307e-05
1.03748e-05
9.53873e-06
8.82913e-06
8.26114e-06
7.82822e-06
7.51703e-06
7.31538e-06
7.2161e-06
7.21547e-06
7.31312e-06
7.51222e-06
7.81931e-06
8.24528e-06
8.80498e-06
9.5016e-06
1.03219e-05
1.12241e-05
1.22528e-05
1.36365e-05
1.6025e-05
2.1167e-05
3.07238e-05
8.74948e-05
7.0892e-05
2.13216e-05
1.31281e-05
8.45991e-06
6.05093e-06
4.75379e-06
3.96536e-06
3.43103e-06
3.03624e-06
2.73483e-06
2.50728e-06
2.33847e-06
2.22085e-06
2.14665e-06
2.11057e-06
2.10995e-06
2.14469e-06
2.21727e-06
2.33252e-06
2.4949e-06
2.71706e-06
3.01289e-06
3.40225e-06
3.93153e-06
4.72943e-06
6.0389e-06
8.43915e-06
1.30208e-05
2.10215e-05
7.02154e-05
4.95893e-05
1.71367e-05
9.04661e-06
4.97571e-06
2.94543e-06
1.96451e-06
1.49217e-06
1.24451e-06
1.09638e-06
9.90588e-07
9.13081e-07
8.57232e-07
8.18855e-07
7.9491e-07
7.8339e-07
7.83319e-07
7.94695e-07
8.18534e-07
8.56886e-07
9.12601e-07
9.90071e-07
1.09704e-06
1.24892e-06
1.50389e-06
1.99619e-06
2.99027e-06
4.99683e-06
8.96081e-06
1.68617e-05
4.93068e-05
3.88343e-05
1.33636e-05
6.39979e-06
3.07738e-06
1.60833e-06
1.00817e-06
7.49875e-07
6.304e-07
5.66465e-07
5.24921e-07
4.95596e-07
4.73478e-07
4.57841e-07
4.48036e-07
4.43287e-07
4.4319e-07
4.47771e-07
4.57523e-07
4.73421e-07
4.96721e-07
5.27447e-07
5.7084e-07
6.38184e-07
7.66824e-07
1.0377e-06
1.64664e-06
3.08969e-06
6.32364e-06
1.31901e-05
3.88338e-05
3.21514e-05
1.107e-05
4.5746e-06
1.97126e-06
1.01432e-06
6.57469e-07
5.08148e-07
4.37511e-07
3.97336e-07
3.72414e-07
3.55797e-07
3.44194e-07
3.36245e-07
3.3129e-07
3.28916e-07
3.28928e-07
3.31364e-07
3.3651e-07
3.44917e-07
3.57401e-07
3.75326e-07
4.02121e-07
4.44527e-07
5.2116e-07
6.75414e-07
1.03124e-06
1.97057e-06
4.5172e-06
1.09797e-05
3.22425e-05
2.75727e-05
9.38038e-06
3.40114e-06
1.37656e-06
7.3069e-07
5.02593e-07
4.05929e-07
3.57981e-07
3.31031e-07
3.14421e-07
3.03561e-07
2.96215e-07
2.91323e-07
2.88326e-07
2.86915e-07
2.86956e-07
2.88487e-07
2.9172e-07
2.97066e-07
3.05181e-07
3.17181e-07
3.35357e-07
3.64289e-07
4.13997e-07
5.11075e-07
7.37174e-07
1.3763e-06
3.37002e-06
9.33804e-06
2.76546e-05
2.43136e-05
8.04251e-06
2.66274e-06
1.06251e-06
5.89752e-07
4.24468e-07
3.53745e-07
3.19635e-07
3.00624e-07
2.88926e-07
2.81314e-07
2.76231e-07
2.72889e-07
2.70864e-07
2.69928e-07
2.6999e-07
2.71078e-07
2.73346e-07
2.77084e-07
2.82762e-07
2.91181e-07
3.0385e-07
3.23855e-07
3.58564e-07
4.28898e-07
5.92529e-07
1.06139e-06
2.64309e-06
8.01701e-06
2.43863e-05
2.18618e-05
6.99921e-06
2.18789e-06
8.7872e-07
5.1039e-07
3.7778e-07
3.24074e-07
2.98505e-07
2.84521e-07
2.7609e-07
2.7068e-07
2.67106e-07
2.64774e-07
2.63369e-07
2.62731e-07
2.62795e-07
2.63582e-07
2.65193e-07
2.67821e-07
2.71792e-07
2.77682e-07
2.86601e-07
3.00934e-07
3.26482e-07
3.79673e-07
5.11283e-07
8.77409e-07
2.17567e-06
6.98971e-06
2.19407e-05
2.00372e-05
6.20511e-06
1.8743e-06
7.65199e-07
4.5881e-07
3.49527e-07
3.06391e-07
2.86115e-07
2.75365e-07
2.69119e-07
2.65236e-07
2.62727e-07
2.6111e-07
2.60143e-07
2.59709e-07
2.59764e-07
2.60318e-07
2.61435e-07
2.63243e-07
2.65979e-07
2.70094e-07
2.76512e-07
2.87266e-07
3.07254e-07
3.49788e-07
4.58097e-07
7.64206e-07
1.8694e-06
6.20823e-06
2.01074e-05
1.86889e-05
5.61507e-06
1.66328e-06
6.92954e-07
4.26511e-07
3.3301e-07
2.95943e-07
2.78823e-07
2.70069e-07
2.65224e-07
2.62359e-07
2.6058e-07
2.59462e-07
2.58803e-07
2.5851e-07
2.58549e-07
2.58926e-07
2.59679e-07
2.60901e-07
2.62783e-07
2.65721e-07
2.7056e-07
2.7916e-07
2.95906e-07
3.32365e-07
4.25415e-07
6.92193e-07
1.66214e-06
5.62556e-06
1.87507e-05
1.77087e-05
5.18899e-06
1.52113e-06
6.45884e-07
4.06066e-07
3.23058e-07
2.89821e-07
2.74605e-07
2.67047e-07
2.63059e-07
2.60834e-07
2.59526e-07
2.58738e-07
2.58284e-07
2.58084e-07
2.58109e-07
2.58359e-07
2.58862e-07
2.59692e-07
2.61022e-07
2.63231e-07
2.6713e-07
2.74489e-07
2.8937e-07
3.2218e-07
4.05031e-07
6.45356e-07
1.52135e-06
5.20279e-06
1.77636e-05
1.70243e-05
4.89481e-06
1.42709e-06
6.15553e-07
3.93152e-07
3.17025e-07
2.86271e-07
2.72229e-07
2.65379e-07
2.61892e-07
2.60045e-07
2.59022e-07
2.58435e-07
2.58108e-07
2.57964e-07
2.57978e-07
2.58146e-07
2.58491e-07
2.5908e-07
2.60081e-07
2.61867e-07
2.65236e-07
2.71894e-07
2.85672e-07
3.16147e-07
3.92257e-07
6.15107e-07
1.42806e-06
4.91012e-06
1.70743e-05
1.65891e-05
4.71001e-06
1.36972e-06
5.97695e-07
3.85529e-07
3.13555e-07
2.84319e-07
2.70974e-07
2.64523e-07
2.6131e-07
2.59667e-07
2.58798e-07
2.58322e-07
2.58064e-07
2.57952e-07
2.57958e-07
2.58079e-07
2.58336e-07
2.58793e-07
2.59618e-07
2.61181e-07
2.64272e-07
2.70551e-07
2.83686e-07
3.12734e-07
3.84757e-07
5.97348e-07
1.3711e-06
4.72604e-06
1.66363e-05
1.63762e-05
4.62041e-06
1.34244e-06
5.89278e-07
3.81973e-07
3.11974e-07
2.83468e-07
2.70453e-07
2.64184e-07
2.61089e-07
2.59533e-07
2.58727e-07
2.58296e-07
2.58068e-07
2.57968e-07
2.57971e-07
2.58073e-07
2.58293e-07
2.58697e-07
2.59451e-07
2.60925e-07
2.639e-07
2.70012e-07
2.82846e-07
3.11203e-07
3.81278e-07
5.89005e-07
1.34395e-06
4.63656e-06
1.64221e-05
1.63731e-05
4.6189e-06
1.34223e-06
5.89262e-07
3.81988e-07
3.12009e-07
2.83514e-07
2.70504e-07
2.64234e-07
2.61135e-07
2.59571e-07
2.58759e-07
2.58322e-07
2.58089e-07
2.57987e-07
2.57992e-07
2.58097e-07
2.58324e-07
2.58737e-07
2.59501e-07
2.60986e-07
2.63971e-07
2.7009e-07
2.82925e-07
3.11271e-07
3.81317e-07
5.88996e-07
1.34368e-06
4.63469e-06
1.64189e-05
1.65797e-05
4.70547e-06
1.36909e-06
5.97645e-07
3.85573e-07
3.13662e-07
2.84461e-07
2.71129e-07
2.64676e-07
2.61448e-07
2.59785e-07
2.58894e-07
2.58399e-07
2.58128e-07
2.5801e-07
2.58019e-07
2.58152e-07
2.58428e-07
2.58912e-07
2.59769e-07
2.61366e-07
2.64488e-07
2.70789e-07
2.83928e-07
3.12947e-07
3.84887e-07
5.97335e-07
1.37029e-06
4.72035e-06
1.66263e-05
1.70084e-05
4.88718e-06
1.42599e-06
6.15464e-07
3.93225e-07
3.17205e-07
2.86514e-07
2.72497e-07
2.65641e-07
2.62127e-07
2.60244e-07
2.59183e-07
2.58564e-07
2.58214e-07
2.58061e-07
2.5808e-07
2.58267e-07
2.58644e-07
2.59277e-07
2.60331e-07
2.62174e-07
2.65598e-07
2.723e-07
2.86092e-07
3.16532e-07
3.92516e-07
6.1517e-07
1.4268e-06
4.90062e-06
1.70566e-05
1.76863e-05
5.17795e-06
1.51946e-06
6.45817e-07
4.06176e-07
3.23321e-07
2.90179e-07
2.74998e-07
2.67427e-07
2.63397e-07
2.61116e-07
2.59753e-07
2.58917e-07
2.58432e-07
2.58219e-07
2.58251e-07
2.58527e-07
2.59074e-07
2.59963e-07
2.61366e-07
2.63654e-07
2.67633e-07
2.75061e-07
2.8998e-07
3.22766e-07
4.05465e-07
6.45523e-07
1.51964e-06
5.18927e-06
1.7737e-05
1.86596e-05
5.59963e-06
1.66074e-06
6.92838e-07
4.26663e-07
3.33376e-07
2.9644e-07
2.79362e-07
2.70581e-07
2.6567e-07
2.62724e-07
2.60868e-07
2.59688e-07
2.58989e-07
2.58682e-07
2.58731e-07
2.5914e-07
2.59946e-07
2.6124e-07
2.63208e-07
2.66243e-07
2.71182e-07
2.79875e-07
2.96686e-07
3.33149e-07
4.2607e-07
6.92528e-07
1.65994e-06
5.60742e-06
1.87135e-05
2.00002e-05
6.18326e-06
1.86903e-06
7.64965e-07
4.59049e-07
3.50049e-07
3.07073e-07
2.86831e-07
2.76023e-07
2.69673e-07
2.65677e-07
2.63067e-07
2.61374e-07
2.60362e-07
2.59914e-07
2.59982e-07
2.60575e-07
2.61752e-07
2.63638e-07
2.66466e-07
2.70684e-07
2.7721e-07
2.88067e-07
3.0813e-07
3.50636e-07
4.58946e-07
7.64766e-07
1.86662e-06
6.18453e-06
2.00571e-05
2.18164e-05
6.96969e-06
2.17901e-06
8.78418e-07
5.1085e-07
3.78553e-07
3.25022e-07
2.99442e-07
2.85333e-07
2.76739e-07
2.71173e-07
2.67474e-07
2.65055e-07
2.63606e-07
2.62959e-07
2.63044e-07
2.63877e-07
2.65552e-07