/*--------------------------------*- C++ -*----------------------------------*\
| =========                 |                                                 |
| \\      /  F ield         | OpenFOAM: The Open Source CFD Toolbox           |
|  \\    /   O peration     | Version:  2312                                  |
|   \\  /    A nd           | Website:  www.openfoam.com                      |
|    \\/     M anipulation  |                                                 |
\*---------------------------------------------------------------------------*/
FoamFile
{
    version     2.0;
    format      ascii;
    arch        "LSB;label=32;scalar=64";
    class       volScalarField;
    location    "750";
    object      k;
}
// * * * * * * * * * * * * * * * * * * * * * * * * * * * * * * * * * * * * * //

dimensions      [0 2 -2 0 0 0 0];

internalField   nonuniform List<scalar> 
27000
(
0.000257693
0.00012888
0.000107255
9.57823e-05
9.04815e-05
8.71742e-05
8.46298e-05
8.23802e-05
8.04959e-05
7.89625e-05
7.77341e-05
7.67795e-05
7.60764e-05
7.55948e-05
7.53552e-05
7.53699e-05
7.56366e-05
7.61317e-05
7.68541e-05
7.78281e-05
7.90747e-05
8.06234e-05
8.25177e-05
8.47683e-05
8.72989e-05
9.05669e-05
9.57893e-05
0.000107132
0.000128592
0.000257068
9.77308e-05
2.13065e-05
2.81093e-05
3.05986e-05
3.24186e-05
3.36193e-05
3.43832e-05
3.48447e-05
3.51057e-05
3.52678e-05
3.53803e-05
3.54626e-05
3.55211e-05
3.55572e-05
3.55735e-05
3.55721e-05
3.55527e-05
3.55123e-05
3.54496e-05
3.53627e-05
3.52444e-05
3.50767e-05
3.4812e-05
3.4353e-05
3.3588e-05
3.23794e-05
3.05442e-05
2.80189e-05
2.12213e-05
9.75142e-05
0.000101039
3.45228e-05
2.88128e-05
2.74427e-05
2.81289e-05
2.89883e-05
2.97e-05
3.0294e-05
3.07614e-05
3.1128e-05
3.1418e-05
3.16444e-05
3.18108e-05
3.19182e-05
3.19673e-05
3.19586e-05
3.18925e-05
3.17695e-05
3.15906e-05
3.13567e-05
3.10636e-05
3.07008e-05
3.02491e-05
2.96913e-05
2.90052e-05
2.81649e-05
2.74792e-05
2.8774e-05
3.43358e-05
0.000100913
9.48502e-05
3.50472e-05
2.88299e-05
2.87778e-05
2.9647e-05
3.04055e-05
3.09736e-05
3.14046e-05
3.1737e-05
3.19946e-05
3.21974e-05
3.2356e-05
3.24733e-05
3.25491e-05
3.25827e-05
3.2574e-05
3.25238e-05
3.24341e-05
3.23079e-05
3.21474e-05
3.19507e-05
3.1709e-05
3.14036e-05
3.10068e-05
3.04695e-05
2.97331e-05
2.88558e-05
2.88447e-05
3.49435e-05
9.48426e-05
9.04607e-05
3.41077e-05
2.9091e-05
2.9903e-05
3.09503e-05
3.16906e-05
3.21833e-05
3.25138e-05
3.2742e-05
3.29037e-05
3.30229e-05
3.31123e-05
3.31771e-05
3.32182e-05
3.32353e-05
3.32285e-05
3.31988e-05
3.31484e-05
3.30799e-05
3.29939e-05
3.28863e-05
3.27446e-05
3.25432e-05
3.22404e-05
3.1768e-05
3.10334e-05
2.99658e-05
2.91024e-05
3.40498e-05
9.05328e-05
8.68333e-05
3.3858e-05
2.94745e-05
3.06202e-05
3.17435e-05
3.24885e-05
3.29545e-05
3.32389e-05
3.34096e-05
3.35112e-05
3.35727e-05
3.36113e-05
3.36357e-05
3.36495e-05
3.36537e-05
3.36491e-05
3.36367e-05
3.3618e-05
3.35937e-05
3.35615e-05
3.3513e-05
3.34297e-05
3.32796e-05
3.30128e-05
3.25548e-05
3.18021e-05
3.06528e-05
2.9469e-05
3.38217e-05
8.69439e-05
8.36908e-05
3.39065e-05
3.00582e-05
3.11864e-05
3.22573e-05
3.29709e-05
3.34125e-05
3.36689e-05
3.38059e-05
3.38708e-05
3.38956e-05
3.39006e-05
3.38975e-05
3.38923e-05
3.38877e-05
3.3885e-05
3.38851e-05
3.38885e-05
3.38938e-05
3.38957e-05
3.38821e-05
3.38308e-05
3.37065e-05
3.34578e-05
3.30142e-05
3.22852e-05
3.11855e-05
3.00198e-05
3.38753e-05
8.38159e-05
8.09456e-05
3.40679e-05
3.06893e-05
3.16846e-05
3.26376e-05
3.32806e-05
3.36798e-05
3.39059e-05
3.40173e-05
3.40583e-05
3.40608e-05
3.4046e-05
3.40267e-05
3.40104e-05
3.40007e-05
3.39994e-05
3.40071e-05
3.40235e-05
3.40455e-05
3.40661e-05
3.40715e-05
3.40386e-05
3.39329e-05
3.37067e-05
3.3299e-05
3.26374e-05
3.16588e-05
3.06408e-05
3.40465e-05
8.1073e-05
7.84229e-05
3.42294e-05
3.12325e-05
3.21049e-05
3.29354e-05
3.34938e-05
3.38377e-05
3.40278e-05
3.41149e-05
3.41386e-05
3.41282e-05
3.41033e-05
3.40767e-05
3.40555e-05
3.40437e-05
3.40433e-05
3.40546e-05
3.40765e-05
3.41056e-05
3.41343e-05
3.41491e-05
3.41287e-05
3.4042e-05
3.3847e-05
3.34918e-05
3.29158e-05
3.20664e-05
3.11845e-05
3.42197e-05
7.85736e-05
7.62453e-05
3.43647e-05
3.16755e-05
3.24481e-05
3.31704e-05
3.36481e-05
3.39345e-05
3.40864e-05
3.41499e-05
3.416e-05
3.41424e-05
3.41139e-05
3.40857e-05
3.4064e-05
3.40524e-05
3.40523e-05
3.40642e-05
3.40867e-05
3.41164e-05
3.41468e-05
3.41658e-05
3.41555e-05
3.4089e-05
3.393e-05
3.36323e-05
3.31407e-05
3.24062e-05
3.16333e-05
3.43642e-05
7.63841e-05
7.44457e-05
3.44718e-05
3.20257e-05
3.27233e-05
3.33578e-05
3.37641e-05
3.39974e-05
3.41133e-05
3.41552e-05
3.41545e-05
3.4133e-05
3.41046e-05
3.40781e-05
3.40583e-05
3.40479e-05
3.4048e-05
3.40586e-05
3.40789e-05
3.41059e-05
3.41345e-05
3.41553e-05
3.41536e-05
3.4107e-05
3.39836e-05
3.37407e-05
3.33245e-05
3.26835e-05
3.19911e-05
3.44776e-05
7.45698e-05
7.30197e-05
3.45521e-05
3.22917e-05
3.29355e-05
3.3503e-05
3.38517e-05
3.40405e-05
3.41258e-05
3.41494e-05
3.41403e-05
3.41168e-05
3.40901e-05
3.40667e-05
3.40497e-05
3.40409e-05
3.40409e-05
3.40498e-05
3.40666e-05
3.40898e-05
3.41154e-05
3.41368e-05
3.41425e-05
3.41137e-05
3.40216e-05
3.38253e-05
3.34701e-05
3.29002e-05
3.22643e-05
3.45619e-05
7.31314e-05
7.19589e-05
3.46085e-05
3.24822e-05
3.30892e-05
3.36089e-05
3.39151e-05
3.40703e-05
3.41321e-05
3.41418e-05
3.41265e-05
3.41021e-05
3.40775e-05
3.40571e-05
3.40429e-05
3.40356e-05
3.40355e-05
3.40425e-05
3.40562e-05
3.40755e-05
3.40983e-05
3.41199e-05
3.41314e-05
3.41167e-05
3.40492e-05
3.38885e-05
3.35783e-05
3.30586e-05
3.24606e-05
3.46208e-05
7.20612e-05
7.12554e-05
3.46437e-05
3.26046e-05
3.31889e-05
3.36778e-05
3.39564e-05
3.40895e-05
3.41356e-05
3.41361e-05
3.41168e-05
3.4092e-05
3.40691e-05
3.4051e-05
3.40388e-05
3.40327e-05
3.40324e-05
3.40381e-05
3.40494e-05
3.4066e-05
3.40867e-05
3.41083e-05
3.41237e-05
3.41187e-05
3.40678e-05
3.39306e-05
3.36497e-05
3.3162e-05
3.25868e-05
3.46573e-05
7.13515e-05
7.09031e-05
3.46599e-05
3.26639e-05
3.32375e-05
3.37115e-05
3.39767e-05
3.40989e-05
3.41374e-05
3.41333e-05
3.41121e-05
3.40872e-05
3.40652e-05
3.40483e-05
3.40372e-05
3.40316e-05
3.40313e-05
3.40363e-05
3.40464e-05
3.40616e-05
3.40812e-05
3.41029e-05
3.41202e-05
3.412e-05
3.40774e-05
3.39517e-05
3.3685e-05
3.32127e-05
3.2648e-05
3.46739e-05
7.09963e-05
7.08989e-05
3.46582e-05
3.26628e-05
3.32365e-05
3.37109e-05
3.39763e-05
3.40988e-05
3.41375e-05
3.41335e-05
3.41124e-05
3.40875e-05
3.40655e-05
3.40486e-05
3.40375e-05
3.40319e-05
3.40316e-05
3.40366e-05
3.40468e-05
3.40621e-05
3.40818e-05
3.41035e-05
3.41209e-05
3.41206e-05
3.40778e-05
3.39519e-05
3.36848e-05
3.3212e-05
3.26468e-05
3.46717e-05
7.09921e-05
7.12431e-05
3.46385e-05
3.26011e-05
3.31861e-05
3.36758e-05
3.39553e-05
3.40892e-05
3.41359e-05
3.41368e-05
3.41177e-05
3.4093e-05
3.407e-05
3.40518e-05
3.40395e-05
3.40333e-05
3.40332e-05
3.4039e-05
3.40505e-05
3.40674e-05
3.40884e-05
3.41102e-05
3.41256e-05
3.41204e-05
3.4069e-05
3.39311e-05
3.36491e-05
3.31601e-05
3.25832e-05
3.46507e-05
7.13387e-05
7.19391e-05
3.45997e-05
3.2476e-05
3.30843e-05
3.36054e-05
3.39131e-05
3.40697e-05
3.41325e-05
3.41428e-05
3.41278e-05
3.41034e-05
3.40786e-05
3.4058e-05
3.40436e-05
3.40363e-05
3.40363e-05
3.40436e-05
3.40577e-05
3.40775e-05
3.41007e-05
3.41227e-05
3.41342e-05
3.41193e-05
3.40513e-05
3.38894e-05
3.35776e-05
3.30557e-05
3.24546e-05
3.46096e-05
7.2039e-05
7.29931e-05
3.45395e-05
3.22825e-05
3.29282e-05
3.3498e-05
3.38489e-05
3.40396e-05
3.41262e-05
3.41506e-05
3.41416e-05
3.41179e-05
3.40909e-05
3.4067e-05
3.40498e-05
3.4041e-05
3.40412e-05
3.40505e-05
3.4068e-05
3.40917e-05
3.4118e-05
3.41399e-05
3.41459e-05
3.4117e-05
3.40243e-05
3.38268e-05
3.34695e-05
3.28965e-05
3.22563e-05
3.45462e-05
7.3099e-05
7.44134e-05
3.44551e-05
3.2013e-05
3.27136e-05
3.33513e-05
3.37606e-05
3.39962e-05
3.41137e-05
3.41561e-05
3.41553e-05
3.41333e-05
3.41043e-05
3.40771e-05
3.4057e-05
3.40465e-05
3.40469e-05
3.40582e-05
3.40793e-05
3.41072e-05
3.41367e-05
3.41581e-05
3.41569e-05
3.41104e-05
3.39866e-05
3.37425e-05
3.33241e-05
3.26794e-05
3.19813e-05
3.44572e-05
7.45261e-05
7.62085e-05
3.43434e-05
3.16589e-05
3.24358e-05
3.31626e-05
3.36442e-05
3.39332e-05
3.40865e-05
3.41501e-05
3.41597e-05
3.4141e-05
3.41115e-05
3.40825e-05
3.40604e-05
3.40488e-05
3.40492e-05
3.40619e-05
3.40854e-05
3.41162e-05
3.41476e-05
3.41675e-05
3.41578e-05
3.40916e-05
3.39325e-05
3.36339e-05
3.31402e-05
3.24017e-05
3.16218e-05
3.43392e-05
7.63279e-05
7.83837e-05
3.4203e-05
3.12115e-05
3.20905e-05
3.29269e-05
3.34899e-05
3.38364e-05
3.40273e-05
3.41137e-05
3.41361e-05
3.41241e-05
3.40977e-05
3.40701e-05
3.40485e-05
3.40369e-05
3.40372e-05
3.40496e-05
3.40728e-05
3.41032e-05
3.41331e-05
3.41488e-05
3.41291e-05
3.40427e-05
3.38479e-05
3.34922e-05
3.29146e-05
3.20612e-05
3.11712e-05
3.41901e-05
7.85053e-05
8.09117e-05
3.4036e-05
3.06643e-05
3.16693e-05
3.26297e-05
3.32773e-05
3.36783e-05
3.39041e-05
3.40138e-05
3.40524e-05
3.40526e-05
3.40359e-05
3.40156e-05
3.3999e-05
3.39897e-05
3.39895e-05
3.39987e-05
3.40167e-05
3.40403e-05
3.40622e-05
3.40684e-05
3.40361e-05
3.39306e-05
3.37045e-05
3.32966e-05
3.26341e-05
3.1652e-05
3.0625e-05
3.40125e-05
8.10073e-05
8.36539e-05
3.38688e-05
3.00319e-05
3.1173e-05
3.22513e-05
3.29683e-05
3.34102e-05
3.36647e-05
3.37986e-05
3.386e-05
3.38817e-05
3.38847e-05
3.38807e-05
3.38755e-05
3.38717e-05
3.38704e-05
3.38725e-05
3.38779e-05
3.38851e-05
3.38885e-05
3.38758e-05
3.38247e-05
3.37002e-05
3.34511e-05
3.3007e-05
3.22776e-05
3.11756e-05
3.0001e-05
3.38358e-05
8.37401e-05
8.67899e-05
3.38185e-05
2.94559e-05
3.06103e-05
3.1739e-05
3.24855e-05
3.29497e-05
3.32302e-05
3.33961e-05
3.34933e-05
3.35515e-05
3.35881e-05
3.36119e-05
3.36261e-05
3.36317e-05
3.3629e-05
3.3619e-05
3.36029e-05
3.3581e-05
3.35507e-05
3.35032e-05
3.34199e-05
3.3269e-05
3.30008e-05
3.25415e-05
3.17879e-05
3.06375e-05
2.945e-05
3.37797e-05
8.68566e-05
9.0406e-05
3.40587e-05
2.90701e-05
2.98928e-05
3.0945e-05
3.16847e-05
3.21733e-05
3.24977e-05
3.27195e-05
3.28764e-05
3.29926e-05
3.30805e-05
3.31452e-05
3.31873e-05
3.32063e-05
3.32019e-05
3.31751e-05
3.31278e-05
3.30623e-05
3.29789e-05
3.28727e-05
3.2731e-05
3.25286e-05
3.22237e-05
3.17487e-05
3.10112e-05
2.99407e-05
2.9074e-05
3.39987e-05
9.04346e-05
9.47756e-05
3.49833e-05
2.88008e-05
2.87637e-05
2.96374e-05
3.03932e-05
3.09554e-05
3.13777e-05
3.1703e-05
3.19565e-05
3.21574e-05
3.23152e-05
3.24331e-05
3.25105e-05
3.25464e-05
3.25402e-05
3.2493e-05
3.24067e-05
3.22842e-05
3.21269e-05
3.19322e-05
3.16911e-05
3.13857e-05
3.09876e-05
3.04464e-05
2.97046e-05
2.88206e-05
2.88025e-05
3.48826e-05
9.47339e-05
0.000100943
3.4449e-05
2.8763e-05
2.74179e-05
2.81092e-05
2.89673e-05
2.96725e-05
3.02532e-05
3.07161e-05
3.10818e-05
3.13717e-05
3.15979e-05
3.17653e-05
3.18745e-05
3.19256e-05
3.19189e-05
3.1855e-05
3.17346e-05
3.15592e-05
3.13282e-05
3.10366e-05
3.06741e-05
3.02228e-05
2.96698e-05
2.89813e-05
2.81344e-05
2.74389e-05
2.87153e-05
3.42823e-05
0.000100807
9.76146e-05
2.12734e-05
2.80551e-05
3.05527e-05
3.2377e-05
3.35806e-05
3.43447e-05
3.48043e-05
3.50665e-05
3.52305e-05
3.53444e-05
3.54274e-05
3.54864e-05
3.55225e-05
3.55384e-05
3.55365e-05
3.55164e-05
3.54755e-05
3.54118e-05
3.53238e-05
3.5204e-05
3.5034e-05
3.47672e-05
3.43084e-05
3.35412e-05
3.23283e-05
3.04902e-05
2.79653e-05
2.11929e-05
9.74114e-05
0.000257445
0.000128763
0.000107185
9.57461e-05
9.04637e-05
8.71661e-05
8.46261e-05
8.23782e-05
8.04936e-05
7.89585e-05
7.77275e-05
7.67698e-05
7.60627e-05
7.55734e-05
7.53287e-05
7.53386e-05
7.56017e-05
7.61002e-05
7.68194e-05
7.7789e-05
7.90305e-05
8.05734e-05
8.24613e-05
8.47055e-05
8.72309e-05
9.04948e-05
9.57135e-05
0.000107046
0.000128485
0.000256868
0.000214193
0.000108453
9.3321e-05
8.49679e-05
8.19475e-05
8.03592e-05
7.93134e-05
7.84227e-05
7.7721e-05
7.71739e-05
7.66856e-05
7.62629e-05
7.59471e-05
7.57772e-05
7.56984e-05
7.56816e-05
7.57297e-05
7.58947e-05
7.61898e-05
7.65811e-05
7.69808e-05
7.74858e-05
7.81661e-05
7.90762e-05
8.01835e-05
8.18863e-05
8.50996e-05
9.37227e-05
0.000109252
0.000215895
7.95089e-05
2.46819e-05
4.19804e-05
4.28224e-05
4.39308e-05
4.39998e-05
4.34252e-05
4.28687e-05
4.22903e-05
4.17266e-05
4.12353e-05
4.08423e-05
4.05554e-05
4.0371e-05
4.02826e-05
4.02844e-05
4.03774e-05
4.05691e-05
4.0866e-05
4.12698e-05
4.17765e-05
4.23716e-05
4.30085e-05
4.3725e-05
4.43712e-05
4.43497e-05
4.32835e-05
4.24204e-05
2.53532e-05
8.02046e-05
9.10857e-05
5.21022e-05
4.13105e-05
3.27916e-05
3.00389e-05
2.96481e-05
2.96764e-05
2.95421e-05
2.9345e-05
2.91259e-05
2.891e-05
2.87113e-05
2.85607e-05
2.84682e-05
2.84344e-05
2.8458e-05
2.85397e-05
2.86806e-05
2.88748e-05
2.90988e-05
2.93475e-05
2.95947e-05
2.97959e-05
2.98564e-05
2.97564e-05
3.00615e-05
3.27987e-05
4.1538e-05
5.29321e-05
9.15529e-05
8.63984e-05
5.06296e-05
3.63267e-05
2.78722e-05
2.4364e-05
2.40148e-05
2.45911e-05
2.5221e-05
2.57067e-05
2.60764e-05
2.632e-05
2.64652e-05
2.65503e-05
2.66037e-05
2.66413e-05
2.66696e-05
2.66884e-05
2.66892e-05
2.66509e-05
2.65377e-05
2.63111e-05
2.5932e-05
2.53884e-05
2.46579e-05
2.39588e-05
2.4191e-05
2.77559e-05
3.65522e-05
5.13572e-05
8.65594e-05
8.43166e-05
4.61984e-05
3.24205e-05
2.55475e-05
2.33877e-05
2.34112e-05
2.41864e-05
2.50553e-05
2.57695e-05
2.63083e-05
2.66902e-05
2.69462e-05
2.71108e-05
2.72129e-05
2.72707e-05
2.72925e-05
2.72777e-05
2.72153e-05
2.70827e-05
2.68451e-05
2.64612e-05
2.58891e-05
2.51035e-05
2.41415e-05
2.32986e-05
2.32399e-05
2.54861e-05
3.25673e-05
4.66789e-05
8.42365e-05
8.29244e-05
4.26527e-05
3.02455e-05
2.49379e-05
2.38045e-05
2.41645e-05
2.49358e-05
2.57387e-05
2.64323e-05
2.69788e-05
2.73819e-05
2.76632e-05
2.78499e-05
2.79658e-05
2.80274e-05
2.80425e-05
2.801e-05
2.79194e-05
2.77501e-05
2.74729e-05
2.70545e-05
2.64702e-05
2.57206e-05
2.48593e-05
2.40608e-05
2.37451e-05
2.4981e-05
3.04089e-05
4.2979e-05
8.2742e-05
8.17682e-05
4.0174e-05
2.87185e-05
2.49407e-05
2.45967e-05
2.51153e-05
2.58187e-05
2.65072e-05
2.71091e-05
2.75959e-05
2.79657e-05
2.8231e-05
2.84107e-05
2.85226e-05
2.85801e-05
2.85895e-05
2.85497e-05
2.84516e-05
2.82787e-05
2.80093e-05
2.76222e-05
2.71063e-05
2.64716e-05
2.57622e-05
2.5071e-05
2.46145e-05
2.50615e-05
2.89262e-05
4.02861e-05
8.16114e-05
8.07365e-05
3.88105e-05
2.77266e-05
2.51424e-05
2.53184e-05
2.59406e-05
2.65876e-05
2.71751e-05
2.76779e-05
2.80857e-05
2.83993e-05
2.86278e-05
2.87843e-05
2.8882e-05
2.89309e-05
2.8936e-05
2.88962e-05
2.88045e-05
2.86486e-05
2.84136e-05
2.80866e-05
2.76624e-05
2.71485e-05
2.6567e-05
2.59545e-05
2.54019e-05
2.53089e-05
2.79084e-05
3.88664e-05
8.05956e-05
8.01174e-05
3.79105e-05
2.71921e-05
2.54484e-05
2.59025e-05
2.65865e-05
2.71962e-05
2.77059e-05
2.81217e-05
2.84514e-05
2.87029e-05
2.88863e-05
2.90121e-05
2.90905e-05
2.9129e-05
2.91311e-05
2.90963e-05
2.90192e-05
2.88915e-05
2.87027e-05
2.84438e-05
2.81093e-05
2.76976e-05
2.72084e-05
2.66402e-05
2.60167e-05
2.562e-05
2.73387e-05
3.7936e-05
7.99367e-05
7.96338e-05
3.72906e-05
2.68968e-05
2.57129e-05
2.63389e-05
2.7062e-05
2.76487e-05
2.81022e-05
2.84491e-05
2.87113e-05
2.89053e-05
2.90441e-05
2.91384e-05
2.91966e-05
2.92246e-05
2.92251e-05
2.91976e-05
2.91388e-05
2.90424e-05
2.89007e-05
2.8705e-05
2.8446e-05
2.81115e-05
2.76829e-05
2.71346e-05
2.64579e-05
2.5867e-05
2.7009e-05
3.72973e-05
7.9477e-05
7.92148e-05
3.68604e-05
2.67368e-05
2.59158e-05
2.66473e-05
2.7397e-05
2.79689e-05
2.8383e-05
2.86783e-05
2.88873e-05
2.90335e-05
2.91338e-05
2.92e-05
2.924e-05
2.92587e-05
2.92584e-05
2.9239e-05
2.9198e-05
2.91307e-05
2.90301e-05
2.88863e-05
2.86849e-05
2.84046e-05
2.80141e-05
2.7473e-05
2.67552e-05
2.60415e-05
2.68178e-05
3.68565e-05
7.90819e-05
7.88629e-05
3.65654e-05
2.66566e-05
2.6069e-05
2.68618e-05
2.76257e-05
2.81861e-05
2.85724e-05
2.88307e-05
2.90003e-05
2.91102e-05
2.91805e-05
2.92242e-05
2.92495e-05
2.9261e-05
2.92606e-05
2.92484e-05
2.92225e-05
2.91789e-05
2.91104e-05
2.90052e-05
2.88448e-05
2.8601e-05
2.82345e-05
2.76966e-05
2.69529e-05
2.6166e-05
2.67127e-05
3.65557e-05
7.87485e-05
7.85885e-05
3.63703e-05
2.6622e-05
2.61818e-05
2.70076e-05
2.77762e-05
2.83267e-05
2.86933e-05
2.89262e-05
2.90686e-05
2.91531e-05
2.9202e-05
2.92296e-05
2.92443e-05
2.92506e-05
2.92503e-05
2.92438e-05
2.92293e-05
2.9203e-05
2.91571e-05
2.90784e-05
2.89451e-05
2.87251e-05
2.83741e-05
2.78395e-05
2.70827e-05
2.62557e-05
2.66604e-05
3.63576e-05
7.8487e-05
7.84014e-05
3.6252e-05
2.6611e-05
2.62584e-05
2.70995e-05
2.78676e-05
2.84102e-05
2.87638e-05
2.89806e-05
2.91061e-05
2.91747e-05
2.92102e-05
2.92275e-05
2.92354e-05
2.92385e-05
2.92385e-05
2.92357e-05
2.92287e-05
2.92133e-05
2.91816e-05
2.91191e-05
2.90023e-05
2.87966e-05
2.84555e-05
2.79244e-05
2.71631e-05
2.63173e-05
2.66389e-05
3.62381e-05
7.83078e-05
7.83086e-05
3.61967e-05
2.66095e-05
2.62977e-05
2.71446e-05
2.79111e-05
2.8449e-05
2.87958e-05
2.90047e-05
2.9122e-05
2.91829e-05
2.92119e-05
2.92243e-05
2.92289e-05
2.92304e-05
2.92306e-05
2.92298e-05
2.92263e-05
2.92163e-05
2.91914e-05
2.91365e-05
2.90275e-05
2.88287e-05
2.84926e-05
2.7964e-05
2.72021e-05
2.63495e-05
2.66328e-05
3.61825e-05
7.82184e-05
7.83134e-05
3.61982e-05
2.66112e-05
2.62994e-05
2.71457e-05
2.79116e-05
2.8449e-05
2.87954e-05
2.90039e-05
2.9121e-05
2.91817e-05
2.92105e-05
2.92228e-05
2.92274e-05
2.92288e-05
2.9229e-05
2.92282e-05
2.92249e-05
2.9215e-05
2.91901e-05
2.91354e-05
2.90265e-05
2.88279e-05
2.8492e-05
2.79637e-05
2.72025e-05
2.63509e-05
2.66352e-05
3.61847e-05
7.82227e-05
7.84159e-05
3.62568e-05
2.66167e-05
2.62638e-05
2.71033e-05
2.78694e-05
2.84104e-05
2.87626e-05
2.89784e-05
2.91032e-05
2.91713e-05
2.92063e-05
2.92233e-05
2.9231e-05
2.92339e-05
2.9234e-05
2.92313e-05
2.92245e-05
2.92095e-05
2.91781e-05
2.91159e-05
2.89995e-05
2.87942e-05
2.84536e-05
2.79236e-05
2.71643e-05
2.63216e-05
2.6646e-05
3.62445e-05
7.83213e-05
7.86121e-05
3.63789e-05
2.66329e-05
2.61926e-05
2.70152e-05
2.778e-05
2.83276e-05
2.86918e-05
2.8923e-05
2.90643e-05
2.9148e-05
2.91963e-05
2.92235e-05
2.92379e-05
2.9244e-05
2.92437e-05
2.92373e-05
2.92232e-05
2.91973e-05
2.91519e-05
2.90737e-05
2.89409e-05
2.87214e-05
2.83712e-05
2.78382e-05
2.70847e-05
2.62628e-05
2.66725e-05
3.63688e-05
7.85108e-05
7.8895e-05
3.65787e-05
2.6675e-05
2.60873e-05
2.68745e-05
2.76324e-05
2.81881e-05
2.85709e-05
2.8827e-05
2.89953e-05
2.91044e-05
2.91741e-05
2.92175e-05
2.92425e-05
2.92537e-05
2.92532e-05
2.92412e-05
2.92156e-05
2.91725e-05
2.91046e-05
2.9e-05
2.884e-05
2.85966e-05
2.82309e-05
2.76949e-05
2.69554e-05
2.61755e-05
2.673e-05
3.65725e-05
7.87841e-05
7.92543e-05
3.68797e-05
2.6765e-05
2.59436e-05
2.6666e-05
2.74068e-05
2.7972e-05
2.83818e-05
2.86748e-05
2.88826e-05
2.90284e-05
2.91286e-05
2.91946e-05
2.92343e-05
2.92527e-05
2.92523e-05
2.92328e-05
2.9192e-05
2.9125e-05
2.90249e-05
2.88816e-05
2.86805e-05
2.84004e-05
2.80103e-05
2.74709e-05
2.67578e-05
2.60526e-05
2.68404e-05
3.688e-05
7.91313e-05
7.96794e-05
3.73179e-05
2.69373e-05
2.57511e-05
2.63635e-05
2.70741e-05
2.76524e-05
2.81015e-05
2.84466e-05
2.87088e-05
2.89033e-05
2.90425e-05
2.9137e-05
2.91949e-05
2.92224e-05
2.92224e-05
2.91946e-05
2.91356e-05
2.90393e-05
2.88979e-05
2.87025e-05
2.84435e-05
2.81086e-05
2.76797e-05
2.71322e-05
2.64596e-05
2.58785e-05
2.7037e-05
3.7329e-05
7.95429e-05
8.01663e-05
3.79489e-05
2.72481e-05
2.54971e-05
2.59312e-05
2.6599e-05
2.71996e-05
2.77061e-05
2.81223e-05
2.84538e-05
2.87074e-05
2.88919e-05
2.90181e-05
2.90961e-05
2.91337e-05
2.91349e-05
2.90991e-05
2.90214e-05
2.88932e-05
2.87043e-05
2.84454e-05
2.81106e-05
2.7698e-05
2.72074e-05
2.66385e-05
2.60173e-05
2.563e-05
2.73726e-05
3.79779e-05
8.00203e-05
8.0774e-05
3.88663e-05
2.78025e-05
2.51991e-05
2.53466e-05
2.59504e-05
2.65905e-05
2.71785e-05
2.76854e-05
2.80979e-05
2.84151e-05
2.86453e-05
2.88018e-05
2.88985e-05
2.89458e-05
2.89492e-05
2.89077e-05
2.88146e-05
2.86576e-05
2.8422e-05
2.80947e-05
2.767e-05
2.7155e-05
2.65713e-05
2.59561e-05
2.54033e-05
2.53189e-05
2.79508e-05
3.89238e-05
8.06694e-05
8.18112e-05
4.02663e-05
2.88149e-05
2.49927e-05
2.46174e-05
2.51212e-05
2.58236e-05
2.65191e-05
2.71302e-05
2.76249e-05
2.79993e-05
2.8266e-05
2.84446e-05
2.85543e-05
2.86089e-05
2.86154e-05
2.85729e-05
2.84724e-05
2.82976e-05
2.80269e-05
2.76392e-05
2.7123e-05
2.64877e-05
2.57764e-05
2.50817e-05
2.46223e-05
2.50762e-05
2.89848e-05
4.03781e-05
8.17051e-05
8.30196e-05
4.28766e-05
3.03284e-05
2.49802e-05
2.3818e-05
2.41705e-05
2.49508e-05
2.5769e-05
2.64772e-05
2.70337e-05
2.7441e-05
2.77219e-05
2.79054e-05
2.80171e-05
2.80741e-05
2.80849e-05
2.80485e-05
2.79541e-05
2.77814e-05
2.75018e-05
2.70824e-05
2.64986e-05
2.57499e-05
2.4889e-05
2.40878e-05
2.37676e-05
2.50096e-05
3.04671e-05
4.31937e-05
8.29221e-05
8.44538e-05
4.64453e-05
3.25059e-05
2.55905e-05
2.3401e-05
2.34308e-05
2.42268e-05
2.51184e-05
2.58523e-05
2.64001e-05
2.67824e-05
2.70347e-05
2.71935e-05
2.72887e-05
2.73399e-05
2.73559e-05
2.73357e-05
2.72678e-05
2.71295e-05
2.68874e-05
2.65017e-05
2.59303e-05
2.51474e-05
2.41903e-05
2.33449e-05
2.32887e-05
2.55493e-05
3.26398e-05
4.68896e-05
8.44552e-05
8.66025e-05
5.09258e-05
3.64958e-05
2.79287e-05
2.43938e-05
2.40643e-05
2.46682e-05
2.53246e-05
2.58332e-05
2.62057e-05
2.64445e-05
2.6585e-05
2.66625e-05
2.67069e-05
2.67361e-05
2.67575e-05
2.67699e-05
2.67633e-05
2.67153e-05
2.65935e-05
2.63638e-05
2.59854e-05
2.54422e-05
2.47185e-05
2.40265e-05
2.42706e-05
2.78572e-05
3.67164e-05
5.15893e-05
8.68135e-05
9.13495e-05
5.23798e-05
4.14502e-05
3.28426e-05
3.00912e-05
2.97215e-05
2.97758e-05
2.96716e-05
2.9471e-05
2.92421e-05
2.90201e-05
2.88267e-05
2.86711e-05
2.8571e-05
2.85307e-05
2.85496e-05
2.86275e-05
2.87625e-05
2.8943e-05
2.91593e-05
2.9407e-05
2.96591e-05
2.98692e-05
2.99206e-05
2.98178e-05
3.01229e-05
3.2861e-05
4.16445e-05
5.30526e-05
9.17875e-05
7.98123e-05
2.48669e-05
4.21524e-05
4.30113e-05
4.41356e-05
4.42041e-05
4.3609e-05
4.29609e-05
4.23557e-05
4.17805e-05
4.12835e-05
4.08863e-05
4.05954e-05
4.04094e-05
4.03207e-05
4.03232e-05
4.04177e-05
4.06114e-05
4.0911e-05
4.13177e-05
4.18291e-05
4.24316e-05
4.30909e-05
4.38933e-05
4.45514e-05
4.4519e-05
4.34172e-05
4.25419e-05
2.54032e-05
8.0435e-05
0.000214836
0.000108752
9.35114e-05
8.50877e-05
8.20239e-05
8.04067e-05
7.93397e-05
7.84362e-05
7.7737e-05
7.71941e-05
7.67028e-05
7.62833e-05
7.59719e-05
7.58146e-05
7.57422e-05
7.57311e-05
7.57832e-05
7.5938e-05
7.62366e-05
7.66371e-05
7.70752e-05
7.75955e-05
7.82871e-05
7.92167e-05
8.03405e-05
8.20511e-05
8.52642e-05
9.39006e-05
0.000109456
0.000216318
0.000184479
9.29192e-05
8.27535e-05
7.75282e-05
7.65023e-05
7.62043e-05
7.59181e-05
7.5385e-05
7.48356e-05
7.43659e-05
7.40311e-05
7.38045e-05
7.36418e-05
7.35149e-05
7.34501e-05
7.34566e-05
7.35344e-05
7.36705e-05
7.38668e-05
7.41216e-05
7.45276e-05
7.50221e-05
7.55775e-05
7.60768e-05
7.62956e-05
7.64871e-05
7.73544e-05
8.23143e-05
9.21335e-05
0.000182728
6.90056e-05
2.87079e-05
5.01619e-05
5.32284e-05
5.63799e-05
5.89612e-05
6.06222e-05
6.106e-05
6.0615e-05
5.97689e-05
5.88445e-05
5.80112e-05
5.73497e-05
5.68972e-05
5.66684e-05
5.66679e-05
5.68951e-05
5.73432e-05
5.79927e-05
5.88038e-05
5.97013e-05
6.05126e-05
6.0915e-05
6.03249e-05
5.85544e-05
5.58946e-05
5.26921e-05
4.95051e-05
2.8122e-05
6.83048e-05
8.04766e-05
5.47418e-05
5.02361e-05
4.46487e-05
4.03197e-05
3.79184e-05
3.65309e-05
3.56874e-05
3.49479e-05
3.4222e-05
3.35721e-05
3.30473e-05
3.26566e-05
3.24011e-05
3.22774e-05
3.22826e-05
3.24168e-05
3.26825e-05
3.30831e-05
3.36246e-05
3.42815e-05
3.50084e-05
3.57315e-05
3.64849e-05
3.79051e-05
4.03603e-05
4.46678e-05
5.00551e-05
5.4142e-05
7.9966e-05
7.78985e-05
5.80972e-05
4.8279e-05
3.72814e-05
3.08719e-05
2.75577e-05
2.62562e-05
2.57766e-05
2.54641e-05
2.51146e-05
2.48323e-05
2.46331e-05
2.45022e-05
2.4422e-05
2.43806e-05
2.43721e-05
2.43969e-05
2.44621e-05
2.45837e-05
2.47865e-05
2.50881e-05
2.5481e-05
2.58732e-05
2.64135e-05
2.78655e-05
3.12462e-05
3.74653e-05
4.80036e-05
5.71431e-05
7.75997e-05
7.71273e-05
5.68879e-05
4.32971e-05
3.19083e-05
2.61013e-05
2.38332e-05
2.2952e-05
2.26179e-05
2.24964e-05
2.24308e-05
2.23935e-05
2.23846e-05
2.23919e-05
2.2402e-05
2.24067e-05
2.24025e-05
2.23904e-05
2.23764e-05
2.23733e-05
2.24004e-05
2.2479e-05
2.26142e-05
2.28272e-05
2.32461e-05
2.41531e-05
2.64839e-05
3.20563e-05
4.30255e-05
5.6284e-05
7.71212e-05
7.6642e-05
5.58629e-05
3.82016e-05
2.81288e-05
2.40666e-05
2.26549e-05
2.23791e-05
2.23836e-05
2.24496e-05
2.25129e-05
2.25626e-05
2.26055e-05
2.26426e-05
2.267e-05
2.2684e-05
2.26833e-05
2.26693e-05
2.26471e-05
2.26252e-05
2.26136e-05
2.2617e-05
2.26292e-05
2.26503e-05
2.27164e-05
2.30112e-05
2.42761e-05
2.81857e-05
3.8006e-05
5.55122e-05
7.67806e-05
7.61495e-05
5.42778e-05
3.4485e-05
2.59232e-05
2.28967e-05
2.23294e-05
2.24995e-05
2.27658e-05
2.298e-05
2.31294e-05
2.32283e-05
2.32942e-05
2.33387e-05
2.33673e-05
2.33823e-05
2.33851e-05
2.33772e-05
2.3361e-05
2.33381e-05
2.33065e-05
2.32557e-05
2.31641e-05
2.30056e-05
2.27749e-05
2.25885e-05
2.30594e-05
2.59713e-05
3.44861e-05
5.41579e-05
7.62951e-05
7.57042e-05
5.21105e-05
3.20639e-05
2.45276e-05
2.22435e-05
2.22461e-05
2.27181e-05
2.31658e-05
2.3495e-05
2.37151e-05
2.38545e-05
2.394e-05
2.39912e-05
2.40209e-05
2.40361e-05
2.40406e-05
2.40359e-05
2.40209e-05
2.39907e-05
2.3934e-05
2.38298e-05
2.36462e-05
2.33446e-05
2.29011e-05
2.2393e-05
2.23164e-05
2.45116e-05
3.20886e-05
5.20304e-05
7.5851e-05
7.51562e-05
4.99386e-05
3.04139e-05
2.35956e-05
2.19494e-05
2.2297e-05
2.29384e-05
2.34908e-05
2.38942e-05
2.41649e-05
2.43357e-05
2.4438e-05
2.44963e-05
2.45279e-05
2.45434e-05
2.45483e-05
2.45434e-05
2.4525e-05
2.44834e-05
2.44014e-05
2.42523e-05
2.39998e-05
2.36037e-05
2.3038e-05
2.23556e-05
2.19486e-05
2.35385e-05
3.0429e-05
4.99017e-05
7.5334e-05
7.46647e-05
4.80151e-05
2.93028e-05
2.31254e-05
2.19679e-05
2.24583e-05
2.31602e-05
2.37547e-05
2.41922e-05
2.44892e-05
2.4678e-05
2.47906e-05
2.48536e-05
2.48866e-05
2.4902e-05
2.49062e-05
2.48997e-05
2.48767e-05
2.4825e-05
2.47243e-05
2.4546e-05
2.42543e-05
2.38115e-05
2.31952e-05
2.24509e-05
2.19053e-05
2.3042e-05
2.92968e-05
4.80222e-05
7.48368e-05
7.42664e-05
4.64356e-05
2.8547e-05
2.2917e-05
2.21134e-05
2.26664e-05
2.3376e-05
2.39727e-05
2.44147e-05
2.47174e-05
2.49109e-05
2.50265e-05
2.50906e-05
2.51234e-05
2.5138e-05
2.51411e-05
2.51327e-05
2.51064e-05
2.50486e-05
2.49383e-05
2.47473e-05
2.44419e-05
2.39886e-05
2.33691e-05
2.26246e-05
2.20338e-05
2.2837e-05
2.85396e-05
4.64769e-05
7.44289e-05
7.39593e-05
4.52205e-05
2.80408e-05
2.2841e-05
2.22881e-05
2.28717e-05
2.35691e-05
2.41495e-05
2.45797e-05
2.4875e-05
2.50642e-05
2.5177e-05
2.52391e-05
2.52702e-05
2.52835e-05
2.52855e-05
2.52759e-05
2.52481e-05
2.51884e-05
2.50762e-05
2.48847e-05
2.45825e-05
2.41393e-05
2.35388e-05
2.28162e-05
2.2211e-05
2.27766e-05
2.80413e-05
4.52805e-05
7.41115e-05
7.37341e-05
4.43468e-05
2.77154e-05
2.28244e-05
2.24428e-05
2.30437e-05
2.37249e-05
2.42848e-05
2.46978e-05
2.49807e-05
2.51614e-05
2.52685e-05
2.5327e-05
2.53557e-05
2.53675e-05
2.53685e-05
2.53585e-05
2.53307e-05
2.52719e-05
2.51624e-05
2.49767e-05
2.46852e-05
2.42595e-05
2.36833e-05
2.29847e-05
2.23734e-05
2.27754e-05
2.77228e-05
4.44175e-05
7.38785e-05
7.35833e-05
4.37826e-05
2.75228e-05
2.2827e-05
2.25537e-05
2.31653e-05
2.38338e-05
2.43769e-05
2.4775e-05
2.50463e-05
2.52187e-05
2.53203e-05
2.53751e-05
2.54016e-05
2.5412e-05
2.54124e-05
2.54023e-05
2.53754e-05
2.53186e-05
2.52131e-05
2.50344e-05
2.4754e-05
2.43442e-05
2.37877e-05
2.31068e-05
2.24912e-05
2.27883e-05
2.75343e-05
4.38595e-05
7.3723e-05
7.35037e-05
4.35034e-05
2.74328e-05
2.28318e-05
2.26111e-05
2.32284e-05
2.38906e-05
2.44247e-05
2.48144e-05
2.5079e-05
2.52464e-05
2.53444e-05
2.53969e-05
2.54219e-05
2.54316e-05
2.54316e-05
2.54218e-05
2.53956e-05
2.53406e-05
2.5238e-05
2.50639e-05
2.47904e-05
2.43897e-05
2.38437e-05
2.31716e-05
2.25529e-05
2.2798e-05
2.74459e-05
4.35824e-05
7.36413e-05
7.34944e-05
4.34947e-05
2.74309e-05
2.2831e-05
2.26116e-05
2.32301e-05
2.38932e-05
2.44278e-05
2.48177e-05
2.5082e-05
2.52491e-05
2.53468e-05
2.53989e-05
2.54236e-05
2.54331e-05
2.54333e-05
2.54237e-05
2.53979e-05
2.53434e-05
2.52414e-05
2.50679e-05
2.47949e-05
2.43944e-05
2.38482e-05
2.31752e-05
2.2555e-05
2.27978e-05
2.74435e-05
4.35718e-05
7.36316e-05
7.35554e-05
4.37567e-05
2.75171e-05
2.28242e-05
2.25552e-05
2.31705e-05
2.38417e-05
2.43863e-05
2.47847e-05
2.50555e-05
2.52269e-05
2.53272e-05
2.53809e-05
2.54065e-05
2.54166e-05
2.54171e-05
2.54078e-05
2.5382e-05
2.53269e-05
2.52233e-05
2.50463e-05
2.47674e-05
2.43583e-05
2.38012e-05
2.3118e-05
2.24981e-05
2.27879e-05
2.75277e-05
4.38282e-05
7.36931e-05
7.36881e-05
4.43043e-05
2.77059e-05
2.28189e-05
2.24449e-05
2.30524e-05
2.37384e-05
2.43008e-05
2.47143e-05
2.49961e-05
2.51749e-05
2.52799e-05
2.53363e-05
2.53636e-05
2.53747e-05
2.5376e-05
2.53671e-05
2.53414e-05
2.52853e-05
2.51788e-05
2.49961e-05
2.47072e-05
2.42829e-05
2.37062e-05
2.30042e-05
2.2386e-05
2.27758e-05
2.77129e-05
4.43662e-05
7.3827e-05
7.38965e-05
4.51616e-05
2.80273e-05
2.28318e-05
2.22905e-05
2.28844e-05
2.35888e-05
2.41726e-05
2.46031e-05
2.48966e-05
2.50828e-05
2.51923e-05
2.52514e-05
2.52805e-05
2.52929e-05
2.52952e-05
2.52872e-05
2.52621e-05
2.5206e-05
2.5098e-05
2.49106e-05
2.46121e-05
2.41714e-05
2.3571e-05
2.28446e-05
2.22307e-05
2.27795e-05
2.80293e-05
4.52104e-05
7.4037e-05
7.41882e-05
4.63582e-05
2.85305e-05
2.29049e-05
2.21169e-05
2.2684e-05
2.3403e-05
2.40035e-05
2.44452e-05
2.47448e-05
2.4934e-05
2.50449e-05
2.51052e-05
2.51353e-05
2.51488e-05
2.51524e-05
2.5146e-05
2.51229e-05
2.50694e-05
2.4964e-05
2.47782e-05
2.44776e-05
2.40278e-05
2.34093e-05
2.26617e-05
2.20615e-05
2.28443e-05
2.85263e-05
4.63879e-05
7.43298e-05
7.45719e-05
4.79152e-05
2.92927e-05
2.31148e-05
2.19748e-05
2.2483e-05
2.31957e-05
2.37939e-05
2.42296e-05
2.45218e-05
2.47044e-05
2.48111e-05
2.48694e-05
2.48993e-05
2.49136e-05
2.49184e-05
2.49141e-05
2.48947e-05
2.48476e-05
2.47522e-05
2.45795e-05
2.4293e-05
2.38544e-05
2.32402e-05
2.24939e-05
2.19393e-05
2.30548e-05
2.9283e-05
4.79139e-05
7.47114e-05
7.50512e-05
4.98205e-05
3.04193e-05
2.35903e-05
2.19639e-05
2.23313e-05
2.29837e-05
2.35381e-05
2.39373e-05
2.42007e-05
2.43634e-05
2.44586e-05
2.45117e-05
2.45402e-05
2.45548e-05
2.45607e-05
2.45583e-05
2.45436e-05
2.45066e-05
2.44296e-05