/*--------------------------------*- C++ -*----------------------------------*\
| =========                 |                                                 |
| \\      /  F ield         | OpenFOAM: The Open Source CFD Toolbox           |
|  \\    /   O peration     | Version:  2312                                  |
|   \\  /    A nd           | Website:  www.openfoam.com                      |
|    \\/     M anipulation  |                                                 |
\*---------------------------------------------------------------------------*/
FoamFile
{
    version     2.0;
    format      ascii;
    arch        "LSB;label=32;scalar=64";
    class       volScalarField;
    location    "750";
    object      nut;
}
// * * * * * * * * * * * * * * * * * * * * * * * * * * * * * * * * * * * * * //

dimensions      [0 2 -1 0 0 0 0];

internalField   nonuniform List<scalar> 
27000
(
3.94101e-06
6.69102e-06
9.35623e-06
1.17513e-05
1.40816e-05
1.6256e-05
1.82285e-05
1.98936e-05
2.1325e-05
2.25478e-05
2.35638e-05
2.43745e-05
2.49812e-05
2.53828e-05
2.55828e-05
2.55853e-05
2.53897e-05
2.499e-05
2.43861e-05
2.35777e-05
2.25634e-05
2.13414e-05
1.99096e-05
1.82428e-05
1.6267e-05
1.40877e-05
1.17512e-05
9.35048e-06
6.68337e-06
3.93615e-06
5.73545e-06
1.26912e-06
5.15532e-06
9.07549e-06
1.31436e-05
1.70021e-05
2.06356e-05
2.40054e-05
2.70536e-05
2.9759e-05
3.20891e-05
3.40089e-05
3.54853e-05
3.64957e-05
3.70061e-05
3.69983e-05
3.64743e-05
3.54573e-05
3.39764e-05
3.20561e-05
2.97271e-05
2.70264e-05
2.39857e-05
2.06284e-05
1.69991e-05
1.31416e-05
9.07458e-06
5.15033e-06
1.26576e-06
5.72901e-06
9.20976e-06
7.09171e-06
1.4714e-05
2.64063e-05
3.70166e-05
4.63135e-05
5.47761e-05
6.26447e-05
6.97502e-05
7.59834e-05
8.12795e-05
8.55991e-05
8.88857e-05
9.11064e-05
9.22198e-05
9.21997e-05
9.1053e-05
8.88178e-05
8.55399e-05
8.12695e-05
7.60228e-05
6.98342e-05
6.27644e-05
5.49437e-05
4.646e-05
3.71357e-05
2.65275e-05
1.47869e-05
7.07081e-06
9.20369e-06
1.21516e-05
1.08382e-05
2.64983e-05
5.32571e-05
7.8542e-05
9.65144e-05
0.000110011
0.000120999
0.000130123
0.000137607
0.000143683
0.000148459
0.000152001
0.000154349
0.000155518
0.000155511
0.000154338
0.000152012
0.000148529
0.000143853
0.000137874
0.000130436
0.00012131
0.000110283
9.67107e-05
7.8731e-05
5.35164e-05
2.66719e-05
1.08334e-05
1.21508e-05
1.49317e-05
1.44858e-05
3.73753e-05
7.70107e-05
0.000113788
0.000139422
0.00015623
0.000168063
0.000176771
0.000183033
0.000187883
0.000191546
0.000194183
0.000195896
0.000196742
0.000196751
0.00019593
0.000194265
0.000191701
0.000188121
0.00018332
0.000176999
0.000168299
0.000156463
0.000139608
0.00011402
7.73376e-05
3.7573e-05
1.4485e-05
1.49373e-05
1.75046e-05
1.84208e-05
4.8197e-05
9.61714e-05
0.000138657
0.000168018
0.000185914
0.00019711
0.000204492
0.000209421
0.000212814
0.00021518
0.000216792
0.000217801
0.000218293
0.000218305
0.000217844
0.000216878
0.000215324
0.000213015
0.000209654
0.000204727
0.00019737
0.000186244
0.000168324
0.000138979
9.65307e-05
4.83884e-05
1.84171e-05
1.75155e-05
1.98454e-05
2.2534e-05
5.89156e-05
0.000112351
0.000156626
0.000185879
0.000203368
0.00021356
0.000219573
0.000223172
0.00022536
0.000226707
0.000227533
0.000228012
0.000228236
0.000228246
0.000228046
0.0002276
0.000226814
0.000225506
0.000223347
0.000219766
0.000213782
0.000203631
0.000186201
0.000156954
0.000112675
5.90236e-05
2.25147e-05
1.98601e-05
2.1939e-05
2.6706e-05
6.93115e-05
0.000126208
0.000170514
0.000197954
0.000213833
0.000222597
0.000227321
0.000229822
0.000231114
0.000231762
0.000232072
0.000232211
0.000232266
0.000232273
0.000232236
0.000232119
0.000231836
0.000231216
0.000229945
0.000227464
0.000222761
0.000214024
0.000198167
0.000170691
0.000126425
6.93543e-05
2.66773e-05
2.19563e-05
2.37549e-05
3.0809e-05
7.90176e-05
0.000138007
0.000181316
0.000206467
0.000220339
0.000227571
0.000231145
0.000232793
0.000233464
0.000233667
0.000233673
0.000233622
0.000233585
0.00023359
0.00023364
0.000233706
0.000233717
0.000233531
0.000232874
0.000231238
0.000227673
0.000220449
0.000206564
0.000181324
0.000138086
7.89802e-05
3.07626e-05
2.3778e-05
2.53043e-05
3.46915e-05
8.78392e-05
0.000147903
0.000189056
0.000212351
0.000224438
0.00023032
0.000232956
0.000233975
0.000234237
0.000234181
0.000234029
0.000233887
0.000233809
0.000233813
0.0002339
0.00023405
0.000234212
0.000234277
0.000234019
0.000233002
0.000230365
0.000224481
0.000212384
0.000189068
0.000147871
8.77291e-05
3.46331e-05
2.53277e-05
2.65925e-05
3.81942e-05
9.55607e-05
0.000156189
0.000195408
0.000216627
0.000227102
0.00023186
0.00023377
0.000234347
0.000234356
0.000234163
0.000233943
0.000233772
0.000233682
0.000233684
0.000233779
0.000233955
0.000234178
0.00023437
0.000234357
0.000233773
0.000231853
0.000227085
0.000216595
0.000195346
0.000156062
9.53992e-05
3.81292e-05
2.66153e-05
2.76212e-05
4.11779e-05
0.000101966
0.000162818
0.000200344
0.000219759
0.000228877
0.000232743
0.000234113
0.000234391
0.000234249
0.000233995
0.000233759
0.000233589
0.000233502
0.000233503
0.000233591
0.00023376
0.000233994
0.000234241
0.000234371
0.000234079
0.000232691
0.000228807
0.000219665
0.000200211
0.000162626
0.000101772
4.11088e-05
2.7643e-05
2.83913e-05
4.35254e-05
0.000106901
0.000167803
0.000203949
0.000221959
0.000230046
0.000233254
0.000234246
0.00023433
0.000234106
0.00023383
0.0002336
0.000233443
0.000233365
0.000233364
0.00023344
0.000233593
0.000233816
0.000234079
0.000234287
0.000234182
0.000233168
0.000229936
0.000221819
0.000203766
0.00016756
0.000106687
4.34539e-05
2.84123e-05
2.89038e-05
4.5144e-05
0.000110256
0.000171188
0.000206319
0.000223363
0.00023076
0.000233539
0.000234292
0.000234262
0.000233995
0.000233716
0.000233497
0.000233354
0.000233284
0.000233283
0.000233348
0.000233484
0.000233692
0.000233955
0.000234202
0.000234209
0.000233431
0.000230625
0.000223197
0.00020611
0.000170924
0.000110033
4.50714e-05
2.89242e-05
2.91594e-05
4.59698e-05
0.000111952
0.000172884
0.000207492
0.000224046
0.000231098
0.000233666
0.000234305
0.000234222
0.000233938
0.00023366
0.00023345
0.000233315
0.00023325
0.000233247
0.000233307
0.000233433
0.000233631
0.000233892
0.000234155
0.000234213
0.000233548
0.000230953
0.00022387
0.000207275
0.00017262
0.000111728
4.58969e-05
2.91795e-05
2.91585e-05
4.59703e-05
0.000111954
0.000172882
0.000207489
0.000224043
0.000231095
0.000233664
0.000234305
0.000234222
0.000233939
0.000233661
0.00023345
0.000233316
0.000233251
0.000233248
0.000233308
0.000233434
0.000233632
0.000233894
0.000234156
0.000234214
0.000233549
0.000230953
0.000223869
0.000207276
0.000172622
0.000111733
4.58975e-05
2.91785e-05
2.89011e-05
4.51453e-05
0.000110263
0.000171183
0.000206312
0.000223354
0.000230752
0.000233534
0.00023429
0.000234262
0.000233996
0.000233717
0.000233499
0.000233356
0.000233286
0.000233284
0.00023335
0.000233487
0.000233695
0.000233959
0.000234205
0.000234211
0.00023343
0.000230623
0.000223196
0.000206112
0.000170931
0.000110048
4.50731e-05
2.89212e-05
2.83869e-05
4.35272e-05
0.000106913
0.000167798
0.00020394
0.000221947
0.000230035
0.000233246
0.000234242
0.000234329
0.000234105
0.00023383
0.000233599
0.000233442
0.000233363
0.000233363
0.00023344
0.000233594
0.000233818
0.000234082
0.000234289
0.000234183
0.000233166
0.000229932
0.000221817
0.000203771
0.000167578
0.000106712
4.34564e-05
2.84073e-05
2.76155e-05
4.11801e-05
0.000101986
0.000162828
0.000200341
0.000219748
0.000228865
0.000232732
0.000234105
0.000234385
0.000234244
0.000233989
0.000233751
0.00023358
0.000233493
0.000233494
0.000233584
0.000233756
0.000233992
0.00023424
0.000234369
0.000234075
0.000232685
0.0002288
0.000219661
0.000200219
0.000162653
0.000101806
4.11118e-05
2.76361e-05
2.6586e-05
3.81962e-05
9.55886e-05
0.000156213
0.000195416
0.000216622
0.00022709
0.000231848
0.000233758
0.000234335
0.000234342
0.000234147
0.000233924
0.000233751
0.00023366
0.000233664
0.000233761
0.00023394
0.000234166
0.000234361
0.000234348
0.000233763
0.000231842
0.000227073
0.00021659
0.000195357
0.000156096
9.544e-05
3.81325e-05
2.66066e-05
2.52974e-05
3.46928e-05
8.78775e-05
0.000147947
0.000189074
0.00021235
0.000224429
0.000230306
0.000232939
0.000233954
0.000234213
0.000234151
0.000233994
0.000233849
0.00023377
0.000233775
0.000233866
0.000234022
0.000234189
0.000234257
0.000234001
0.000232984
0.000230348
0.000224467
0.000212379
0.000189084
0.000147914
8.7775e-05
3.46363e-05
2.53174e-05
2.37481e-05
3.08088e-05
7.90661e-05
0.000138072
0.000181323
0.000206475
0.000220335
0.000227558
0.000231125
0.000232765
0.000233428
0.000233623
0.000233621
0.000233566
0.000233527
0.000233535
0.00023359
0.000233663
0.000233682
0.000233502
0.000232849
0.000231215
0.000227653
0.000220435
0.000206565
0.000181347
0.000138144
7.90286e-05
3.07637e-05
2.37666e-05
2.19337e-05
2.67034e-05
6.93714e-05
0.000126311
0.000170574
0.00019799
0.000213843
0.00022259
0.000227302
0.000229791
0.000231072
0.000231707
0.000232006
0.000232139
0.000232192
0.000232203
0.000232173
0.000232067
0.000231795
0.000231185
0.000229922
0.000227444
0.000222746
0.000214018
0.000198182
0.00017074
0.000126506
6.9407e-05
2.66742e-05
2.19466e-05
1.98404e-05
2.25322e-05
5.89935e-05
0.000112497
0.000156745
0.000185933
0.000203393
0.000213567
0.000219565
0.000223151
0.000225323
0.000226653
0.000227464
0.000227933
0.000228154
0.000228169
0.00022798
0.00022755
0.000226782
0.000225489
0.000223341
0.000219767
0.000213788
0.000203643
0.000186229
0.000157039
0.000112787
5.90891e-05
2.25124e-05
1.98504e-05
1.74996e-05
1.84243e-05
4.83041e-05
9.63451e-05
0.000138809
0.000168111
0.000185958
0.000197144
0.000204506
0.000209425
0.000212801
0.000215144
0.000216734
0.000217731
0.000218218
0.000218236
0.00021779
0.000216848
0.000215321
0.000213036
0.00020969
0.00020477
0.000197423
0.000186286
0.000168414
0.000139112
9.66631e-05
4.84706e-05
1.84191e-05
1.7506e-05
1.49266e-05
1.4486e-05
3.74715e-05
7.71865e-05
0.00011396
0.000139558
0.000156339
0.000168124
0.000176801
0.000183081
0.000187908
0.00019154
0.000194149
0.000195845
0.000196688
0.000196705
0.000195903
0.000194268
0.000191744
0.000188202
0.000183423
0.000177093
0.000168414
0.000156623
0.0001398
0.00011422
7.74908e-05
3.7644e-05
1.44829e-05
1.49286e-05
1.21464e-05
1.08345e-05
2.65723e-05
5.34059e-05
7.86991e-05
9.66707e-05
0.000110171
0.000121144
0.000130241
0.000137695
0.000143732
0.000148465
0.000151979
0.000154315
0.000155485
0.000155489
0.000154337
0.000152042
0.000148605
0.000143977
0.000138033
0.000130618
0.000121513
0.0001105
9.69337e-05
7.89397e-05
5.36671e-05
2.67251e-05
1.08274e-05
1.21434e-05
9.20502e-06
7.08493e-06
1.47375e-05
2.64676e-05
3.70953e-05
4.6411e-05
5.48803e-05
6.27198e-05
6.98084e-05
7.60247e-05
8.12989e-05
8.55869e-05
8.88623e-05
9.10839e-05
9.22041e-05
9.21943e-05
9.10603e-05
8.88425e-05
8.55972e-05
8.1352e-05
7.61211e-05
6.99422e-05
6.28818e-05
5.50814e-05
4.65901e-05
3.7242e-05
2.65959e-05
1.48021e-05
7.06664e-06
9.19856e-06
5.7317e-06
1.26777e-06
5.14995e-06
9.07178e-06
1.31416e-05
1.70027e-05
2.06362e-05
2.40007e-05
2.70463e-05
2.97503e-05
3.2079e-05
3.3997e-05
3.54738e-05
3.64866e-05
3.69997e-05
3.69945e-05
3.64726e-05
3.54561e-05
3.39781e-05
3.20604e-05
2.97329e-05
2.70324e-05
2.39923e-05
2.0638e-05
1.70065e-05
1.31447e-05
9.07253e-06
5.14483e-06
1.26451e-06
5.72599e-06
3.93896e-06
6.6877e-06
9.35278e-06
1.17486e-05
1.40797e-05
1.62546e-05
1.82274e-05
1.98926e-05
2.13239e-05
2.25464e-05
2.35619e-05
2.43721e-05
2.4978e-05
2.5378e-05
2.5577e-05
2.55786e-05
2.53825e-05
2.49838e-05
2.43796e-05
2.35708e-05
2.25562e-05
2.13339e-05
1.9902e-05
1.82353e-05
1.626e-05
1.40815e-05
1.17461e-05
9.3464e-06
6.68023e-06
3.93444e-06
3.59259e-06
6.1369e-06
8.7266e-06
1.10673e-05
1.33998e-05
1.56053e-05
1.7643e-05
1.94048e-05
2.09477e-05
2.22832e-05
2.33969e-05
2.42843e-05
2.49507e-05
2.54e-05
2.5627e-05
2.56243e-05
2.53925e-05
2.49427e-05
2.42733e-05
2.33818e-05
2.2257e-05
2.09179e-05
1.93752e-05
1.7619e-05
1.55906e-05
1.33968e-05
1.10773e-05
8.74617e-06
6.15961e-06
3.60684e-06
5.17325e-06
1.69636e-06
7.58502e-06
1.12436e-05
1.48547e-05
1.78649e-05
2.04038e-05
2.27786e-05
2.48974e-05
2.67214e-05
2.82644e-05
2.95192e-05
3.04726e-05
3.11044e-05
3.1421e-05
3.1426e-05
3.11174e-05
3.0487e-05
2.95343e-05
2.82757e-05
2.67366e-05
2.49124e-05
2.28048e-05
2.05084e-05
1.79852e-05
1.49663e-05
1.13356e-05
7.63902e-06
1.74302e-06
5.19559e-06
8.74544e-06
1.05586e-05
1.31995e-05
1.65236e-05
2.16679e-05
2.71357e-05
3.22678e-05
3.68332e-05
4.10391e-05
4.48195e-05
4.80422e-05
5.0515e-05
5.23612e-05
5.36025e-05
5.42475e-05
5.43006e-05
5.37573e-05
5.26012e-05
5.07943e-05
4.81625e-05
4.48814e-05
4.10607e-05
3.68195e-05
3.21499e-05
2.70417e-05
2.15976e-05
1.64642e-05
1.31886e-05
1.06989e-05
8.76811e-06
1.15994e-05
1.37475e-05
1.77475e-05
2.50674e-05
3.48227e-05
4.5534e-05
5.53492e-05
6.41841e-05
7.21496e-05
7.93563e-05
8.5413e-05
9.01416e-05
9.36006e-05
9.58886e-05
9.70735e-05
9.71866e-05
9.62165e-05
9.41013e-05
9.07149e-05
8.58614e-05
7.96144e-05
7.22875e-05
6.42592e-05
5.5277e-05
4.53877e-05
3.46066e-05
2.49287e-05
1.77401e-05
1.39139e-05
1.16109e-05
1.44174e-05
1.61924e-05
2.24084e-05
3.48728e-05
5.26939e-05
7.1539e-05
8.78702e-05
0.000101436
0.000112642
0.000122272
0.000130009
0.000135846
0.000140004
0.000142698
0.000144049
0.00014411
0.000142868
0.000140244
0.000136091
0.00013021
0.000122365
0.000112654
0.000101246
8.74964e-05
7.12256e-05
5.24134e-05
3.4674e-05
2.22946e-05
1.63266e-05
1.44115e-05
1.71074e-05
1.83563e-05
2.81569e-05
4.60422e-05
7.12417e-05
9.73693e-05
0.000119897
0.000136923
0.000149262
0.000158764
0.00016614
0.00017166
0.000175566
0.000178066
0.000179299
0.000179327
0.000178142
0.000175662
0.00017174
0.000166166
0.000158697
0.000149077
0.000136501
0.000119289
9.6836e-05
7.09476e-05
4.58863e-05
2.80119e-05
1.84686e-05
1.70895e-05
1.96165e-05
2.05702e-05
3.37265e-05
5.76928e-05
8.92288e-05
0.000120311
0.000145396
0.000163308
0.000175797
0.000184697
0.00019119
0.000195892
0.00019916
0.000201225
0.00020223
0.000202243
0.000201257
0.000199195
0.000195909
0.000191169
0.000184622
0.000175658
0.000163078
0.000145047
0.000119863
8.8998e-05
5.76018e-05
3.36884e-05
2.05868e-05
1.95982e-05
2.19103e-05
2.30428e-05
3.89558e-05
6.88762e-05
0.000105258
0.000138631
0.000163866
0.000181567
0.000193546
0.000201649
0.000207214
0.000211052
0.000213632
0.000215227
0.000215993
0.000215997
0.000215237
0.000213639
0.000211046
0.000207187
0.0002016
0.000193476
0.000181468
0.000163721
0.000138472
0.00010525
6.89544e-05
3.89603e-05
2.30475e-05
2.18915e-05
2.40088e-05
2.53726e-05
4.39558e-05
7.92461e-05
0.000118963
0.000152693
0.000177261
0.000194038
0.00020508
0.000212252
0.000216922
0.000219977
0.000221942
0.00022312
0.000223673
0.000223672
0.000223116
0.000221932
0.000219957
0.000216895
0.000212221
0.000205052
0.000194012
0.000177241
0.000152728
0.000119214
7.95457e-05
4.40177e-05
2.53909e-05
2.39818e-05
2.58587e-05
2.7468e-05
4.84707e-05
8.80988e-05
0.000130334
0.000163614
0.000187062
0.000202612
0.000212538
0.000218738
0.000222579
0.000224955
0.000226407
0.000227242
0.000227623
0.000227619
0.00022723
0.000226388
0.00022493
0.000222555
0.000218723
0.000212542
0.00020264
0.000187124
0.000163749
0.000130613
8.85775e-05
4.85945e-05
2.75005e-05
2.5833e-05
2.74291e-05
2.92932e-05
5.23874e-05
9.52928e-05
0.000138883
0.000171839
0.000194195
0.000208532
0.000217371
0.000222665
0.000225779
0.000227592
0.000228633
0.0002292
0.000229449
0.000229444
0.000229187
0.000228614
0.000227573
0.000225769
0.000222674
0.000217411
0.000208611
0.000194323
0.000172046
0.000139231
9.57965e-05
5.25414e-05
2.9336e-05
2.74057e-05
2.87031e-05
3.08099e-05
5.5633e-05
0.000100957
0.000145332
0.000177887
0.000199294
0.000212587
0.000220492
0.000225025
0.000227547
0.000228917
0.000229645
0.000230012
0.000230165
0.000230161
0.000230004
0.000229635
0.000228913
0.000227559
0.000225066
0.000220572
0.000212713
0.000199476
0.000178144
0.000145701
0.000101418
5.57946e-05
3.08596e-05
2.86817e-05
2.96686e-05
3.1982e-05
5.81387e-05
0.000105195
0.000150009
0.000182159
0.000202801
0.000215278
0.000222463
0.000226417
0.000228497
0.000229545
0.000230049
0.000230278
0.000230365
0.000230364
0.000230277
0.000230052
0.000229559
0.000228535
0.000226489
0.000222579
0.000215443
0.00020302
0.00018244
0.000150363
0.000105582
5.82984e-05
3.20362e-05
2.96487e-05
3.03171e-05
3.27805e-05
5.9852e-05
0.000108087
0.000153095
0.000184908
0.000205005
0.000216922
0.000223621
0.000227189
0.000228979
0.000229818
0.000230181
0.000230323
0.000230369
0.00023037
0.000230328
0.000230195
0.000229849
0.000229038
0.000227286
0.000223763
0.000217113
0.000205245
0.000185197
0.00015343
0.000108425
6.00092e-05
3.28376e-05
3.02982e-05
3.06432e-05
3.31838e-05
6.07205e-05
0.000109545
0.000154635
0.00018626
0.000206072
0.000217703
0.000224157
0.000227531
0.000229177
0.000229914
0.000230208
0.000230308
0.000230335
0.000230338
0.000230318
0.000230229
0.000229955
0.000229248
0.000227641
0.000224313
0.000217906
0.00020632
0.000186549
0.000154957
0.00010986
6.08742e-05
3.32414e-05
3.06247e-05
3.06442e-05
3.31811e-05
6.07189e-05
0.000109552
0.000154645
0.000186269
0.000206078
0.000217706
0.000224156
0.000227528
0.000229172
0.000229907
0.0002302
0.0002303
0.000230327
0.00023033
0.00023031
0.000230222
0.000229949
0.000229244
0.000227639
0.000224313
0.000217909
0.000206324
0.000186553
0.000154961
0.000109862
6.08698e-05
3.32377e-05
3.06256e-05
3.03201e-05
3.27721e-05
5.98474e-05
0.00010811
0.000153125
0.000184934
0.000205023
0.000216931
0.000223621
0.000227181
0.000228965
0.0002298
0.00023016
0.000230301
0.000230347
0.000230349
0.000230307
0.000230176
0.000229834
0.000229027
0.00022728
0.000223765
0.000217121
0.000205258
0.000185213
0.000153444
0.000108432
5.99959e-05
3.2826e-05
3.03011e-05
2.96734e-05
3.19687e-05
5.81323e-05
0.000105237
0.00015006
0.000182203
0.000202832
0.000215295
0.000222466
0.000226408
0.00022848
0.000229522
0.000230023
0.000230251
0.000230337
0.000230336
0.000230251
0.000230029
0.000229541
0.000228523
0.000226486
0.000222586
0.000215461
0.000203045
0.00018247
0.00015039
0.000105601
5.82801e-05
3.20185e-05
2.96537e-05
2.87095e-05
3.07925e-05
5.56261e-05
0.000101031
0.000145405
0.000177946
0.000199337
0.000212613
0.000220502
0.000225022
0.000227535
0.000228899
0.000229624
0.00022999
0.000230143
0.00023014
0.000229984
0.000229618
0.000228902
0.000227556
0.000225073
0.000220592
0.000212745
0.000199516
0.000178187
0.000145738
0.000101442
5.57721e-05
3.08369e-05
2.86888e-05
2.74366e-05
2.92729e-05
5.23782e-05
9.53866e-05
0.000138968
0.000171907
0.000194248
0.00020857
0.000217394
0.000222676
0.000225783
0.000227592
0.000228631
0.000229198
0.000229447
0.000229443
0.000229187
0.000228617
0.000227581
0.000225784
0.000222701
0.00021745
0.000208662
0.000194379
0.000172098
0.00013927
9.58185e-05
5.25155e-05
2.93101e-05
2.74151e-05
2.58668e-05
2.74455e-05
4.84514e-05
8.81976e-05
0.00013042
0.000163686
0.000187123
0.000202664
0.00021258
0.000218772
0.00022261
0.000224986
0.000226438
0.000227275
0.000227656
0.000227653
0.000227264
0.000226422
0.000224967
0.000222597
0.000218775
0.000212606
0.000202713
0.000187195
0.000163801
0.00013064
8.85849e-05
4.85654e-05
2.74735e-05
2.58446e-05
2.4017e-05
2.53507e-05
4.39251e-05
7.93378e-05
0.00011907
0.000152766
0.000177331
0.000194107
0.000205147
0.000212318
0.000216991
0.00022005
0.000222019
0.0002232
0.000223754
0.000223752
0.000223192
0.000222005
0.00022003
0.000216969
0.000212301
0.000205142
0.000194108
0.000177329
0.000152781
0.000119209
7.95019e-05
4.3982e-05
2.53661e-05
2.39953e-05
2.19159e-05
2.30268e-05
3.89202e-05
6.89412e-05
0.000105321
0.000138684
0.000163942
0.000181656
0.00019364
0.000201751
0.000207327
0.000211175
0.000213762
0.000215361
0.000216127
0.000216127
0.00021536
0.000213753
0.000211151
0.000207289
0.000201704
0.000193587
0.000181585
0.000163832
0.000138539
0.000105232
6.88742e-05
3.89123e-05
2.30305e-05
2.19022e-05
1.96222e-05
2.05654e-05
3.36786e-05
5.76933e-05
8.9254e-05
0.000120351
0.000145479
0.000163409
0.000175915
0.000184836
0.000191351
0.000196069
0.000199345
0.000201414
0.000202417
0.000202422
0.000201423
0.000199343
0.000196037
0.000191283
0.000184734
0.000175779
0.000163214
0.000145187
0.000119978
8.90143e-05
5.75031e-05
3.36298e-05
2.058e-05
1.96101e-05
1.71182e-05
1.84166e-05
2.80602e-05
4.60115e-05
7.12481e-05
9.73991e-05
0.000119979
0.000137027
0.00014941
0.000158953
0.000166363
0.000171897
0.000175811
0.000178313
0.000179541
0.000179556
0.000178348
0.000175836
0.000171873
0.000166266
0.000158792
0.000149188
0.000136648
0.00011949
9.69808e-05
7.10068e-05
4.58581e-05
2.79284e-05
1.85222e-05
1.7109e-05
1.44301e-05
1.62507e-05
2.23447e-05
3.48553e-05
5.26964e-05
7.1597e-05
8.79845e-05
0.000101598
0.000112892
0.000122559
0.000130333
0.000136165
0.000140333
0.000143026
0.000144365
0.000144405
0.000143131
0.000140456
0.000136226
0.000130268
0.000122415
0.00011273
0.000101354
8.76671e-05
7.1348e-05
5.24742e-05
3.46935e-05
2.22461e-05
1.63722e-05
1.4431e-05
1.1614e-05
1.38079e-05
1.77681e-05
2.50365e-05
3.48236e-05
4.55667e-05
5.5414e-05
6.43173e-05
7.23887e-05
7.96695e-05
8.57807e-05
9.0575e-05
9.40541e-05
9.63286e-05
9.74874e-05
9.75692e-05
9.65599e-05
9.43823e-05
9.08843e-05
8.58736e-05
7.95798e-05
7.22387e-05
6.42128e-05
5.53049e-05
4.54338e-05
3.46524e-05
2.49196e-05
1.77712e-05
1.39653e-05
1.16286e-05
8.75878e-06
1.06016e-05
1.32095e-05
1.64934e-05
2.16166e-05
2.70604e-05
3.21851e-05
3.68093e-05
4.10349e-05
4.48283e-05
4.80842e-05
5.06977e-05
5.25624e-05
5.37969e-05
5.44298e-05
5.44699e-05
5.3911e-05
5.27231e-05
5.07923e-05
4.81109e-05
4.48175e-05
4.0999e-05
3.67577e-05
3.20582e-05
2.69616e-05
2.15445e-05
1.64378e-05
1.31995e-05
1.07121e-05
8.7798e-06
5.18388e-06
1.70846e-06
7.60707e-06
1.12788e-05
1.49034e-05
1.79203e-05
2.04525e-05
2.2772e-05
2.48783e-05
2.66969e-05
2.8239e-05
2.94959e-05
3.04466e-05
3.1074e-05
3.13868e-05
3.13891e-05
3.10794e-05
3.045e-05
2.9494e-05
2.82336e-05
2.66938e-05
2.48761e-05
2.27826e-05
2.05422e-05
1.80254e-05
1.50009e-05
1.13575e-05
7.65699e-06
1.74509e-06
5.20357e-06
3.59829e-06
6.1457e-06
8.7362e-06
1.1076e-05
1.34072e-05
1.56113e-05
1.76473e-05
1.94078e-05
2.09512e-05
2.22875e-05
2.34005e-05
2.42884e-05
2.49556e-05
2.54077e-05
2.56359e-05
2.56342e-05
2.54029e-05
2.49508e-05
2.42817e-05
2.33914e-05
2.22719e-05
2.0934e-05
1.93913e-05
1.76357e-05
1.56068e-05
1.34111e-05
1.10886e-05
8.75499e-06
6.16582e-06
3.61064e-06
3.33655e-06
5.68437e-06
8.22016e-06
1.05722e-05
1.29461e-05
1.51951e-05
1.72601e-05
1.90249e-05
2.05559e-05
2.18756e-05
2.29883e-05
2.38899e-05
2.45701e-05
2.50224e-05
2.5248e-05
2.52487e-05
2.50247e-05
2.45735e-05
2.38983e-05
2.29996e-05
2.18956e-05
2.05772e-05
1.90448e-05
1.72738e-05
1.52004e-05
1.29418e-05
1.05584e-05
8.19757e-06
5.66075e-06
3.32119e-06
4.8227e-06
2.3587e-06
1.05482e-05
1.57093e-05
2.07448e-05
2.52952e-05
2.92523e-05
3.23429e-05
3.46666e-05
3.64146e-05
3.77237e-05
3.86903e-05
3.93784e-05
3.98279e-05
4.00518e-05
4.00546e-05
3.98373e-05
3.93947e-05
3.87098e-05
3.7744e-05
3.64319e-05
3.46847e-05
3.23543e-05
2.918e-05
2.5184e-05
2.06196e-05
1.55932e-05
1.04204e-05
2.31665e-06
4.79913e-06
8.22213e-06
1.26492e-05
1.7301e-05
2.12078e-05
2.41799e-05
2.72209e-05
3.02886e-05
3.34078e-05
3.62033e-05
3.85411e-05
4.04572e-05
4.20323e-05
4.32181e-05
4.40149e-05
4.44263e-05
4.44537e-05
4.40979e-05
4.33566e-05
4.22308e-05
4.07852e-05
3.89281e-05
3.66105e-05
3.37737e-05
3.04725e-05
2.73419e-05
2.4277e-05
2.12781e-05
1.73181e-05
1.25501e-05
8.19635e-06
1.10132e-05
1.77266e-05
2.31885e-05
2.51403e-05
2.91219e-05
3.47916e-05
4.15805e-05
4.80503e-05
5.3228e-05
5.73063e-05
6.0781e-05
6.37065e-05
6.59849e-05
6.75284e-05
6.82892e-05
6.82481e-05
6.7408e-05
6.57949e-05
6.34766e-05
6.05886e-05
5.72153e-05
5.32663e-05
4.82398e-05
4.17522e-05
3.50086e-05
2.9385e-05
2.52817e-05
2.31442e-05
1.74289e-05
1.09915e-05
1.37862e-05
2.1795e-05
2.6363e-05
2.97761e-05
3.81233e-05
5.07077e-05
6.32259e-05
7.30352e-05
8.04075e-05
8.62659e-05
9.10667e-05
9.52448e-05
9.85617e-05
0.00010081
0.000101933
0.000101917
0.000100765
9.84942e-05
9.51601e-05
9.09161e-05
8.62223e-05
8.06293e-05
7.34855e-05
6.34233e-05
5.05956e-05
3.83362e-05
2.99333e-05
2.63467e-05
2.16154e-05
1.37842e-05
1.64428e-05
2.53712e-05
2.87113e-05
3.61242e-05
5.13923e-05
7.02571e-05
8.87026e-05
0.000103066
0.000114156
0.000122484
0.000128771
0.000133619
0.000137227
0.000139617
0.000140798
0.000140784
0.000139577
0.000137174
0.000133571
0.000128774
0.00012266
0.000114611
0.000103871
8.91152e-05
7.05585e-05
5.14326e-05
3.62834e-05
2.87791e-05
2.52598e-05
1.64557e-05
1.89276e-05
2.82662e-05
3.14687e-05
4.39365e-05
6.45734e-05
8.92856e-05
0.000112238
0.000130302
0.000143574
0.00015313
0.000159968
0.000164866
0.000168276
0.000170442
0.0001715
0.000171516
0.000170492
0.000168369
0.000165014
0.000160191
0.00015346
0.000144001
0.000130757
0.000112761
8.9853e-05
6.49187e-05
4.41081e-05
3.17613e-05
2.8269e-05
1.89439e-05
2.12145e-05
3.03879e-05
3.47493e-05
5.09588e-05
7.55057e-05
0.000104931
0.000131309
0.000151106
0.000165261
0.000175189
0.000182051
0.000186731
0.000189829
0.000191721
0.000192629
0.000192658
0.00019181
0.00018998
0.000186946
0.000182327
0.000175518
0.000165617
0.000151448
0.00013164
0.000105224
7.56449e-05
5.0946e-05
3.50616e-05
3.03909e-05
2.12334e-05
2.32533e-05
3.20676e-05
3.80505e-05
5.70234e-05
8.49546e-05
0.000118439
0.000146125
0.000166374
0.000180598
0.000190354
0.000196913
0.000201228
0.000203971
0.000205588
0.000206349
0.00020638
0.000205682
0.000204126
0.000201439
0.000197168
0.000190634
0.000180876
0.000166622
0.00014631
0.000118469
8.47994e-05
5.68328e-05
3.83025e-05
3.20637e-05
2.32795e-05
2.504e-05
3.34387e-05
4.12309e-05
6.28993e-05
9.46644e-05
0.000129872
0.000157562
0.000177501
0.000191287
0.000200562
0.000206647
0.000210529
0.000212911
0.000214269
0.000214894
0.000214921
0.00021435
0.000213041
0.000210699
0.000206844
0.000200766
0.000191472
0.000177636
0.000157594
0.00012969
9.42718e-05
6.25279e-05
4.13219e-05
3.34318e-05
2.50679e-05
2.65609e-05
3.45613e-05
4.40958e-05
6.82111e-05
0.000103186
0.000138852
0.000166179
0.000185502
0.000198642
0.000207317
0.000212876
0.000216322
0.000218369
0.000219497
0.000220003
0.000220023
0.000219557
0.000218461
0.000216438
0.000213
0.000207431
0.000198724
0.000185524
0.000166101
0.000138609
0.000102709
6.78099e-05
4.41034e-05
3.45581e-05
2.65894e-05
2.77997e-05
3.54674e-05
4.65217e-05
7.26972e-05
0.000110101
0.000145734
0.000172504
0.00019114
0.000203614
0.000211698
0.000216764
0.000219821
0.00022158
0.000222517
0.000222924
0.000222937
0.000222553
0.000221632
0.000219879
0.000216815
0.000211724
0.000203597
0.000191058
0.000172329
0.000145422
0.000109621
7.23468e-05
4.65168e-05
3.54673e-05
2.7828e-05
2.87416e-05
3.61603e-05
4.84435e-05
7.61682e-05
0.000115302
0.000150749
0.00017696
0.000194974
0.000206868
0.000214451
0.00021911
0.000221854
0.000223387
0.000224178
0.000224511
0.000224517
0.000224193
0.000223404
0.000221863
0.000219098
0.000214403
0.000206768
0.000194808
0.000176709
0.000150394
0.000114852
7.5897e-05
4.84361e-05
3.61624e-05
2.87697e-05
2.9375e-05
3.66289e-05
4.97731e-05
7.84624e-05
0.000118747
0.000154029
0.000179814
0.000197366
0.000208836
0.000216059
0.00022043
0.000222956
0.000224335
0.000225028
0.000225311
0.000225312
0.000225028
0.000224327
0.000222931
0.000220375
0.00021596
0.000208681
0.000197145
0.000179518
0.000153655
0.000118326
7.82417e-05
4.97649e-05
3.6633e-05
2.9403e-05
2.96926e-05
3.68646e-05
5.04532e-05
7.96167e-05
0.000120462
0.000155654
0.000181214
0.000198523
0.000209771
0.000216807
0.000221029
0.000223442
0.000224743
0.000225386
0.000225644
0.000225642
0.000225378
0.000224723
0.0002234
0.000220952
0.000216683
0.00020959
0.000198278
0.000180901
0.000155278
0.000120062
7.94178e-05
5.04446e-05
3.68696e-05
2.97205e-05
2.96907e-05
3.68617e-05
5.04539e-05
7.96129e-05
0.000120464
0.00015566
0.000181224
0.000198536
0.000209785
0.000216822
0.000221044
0.000223456
0.000224755
0.000225397
0.000225654
0.000225653
0.00022539
0.000224736
0.000223415
0.000220969
0.000216701
0.000209609
0.000198296
0.000180918
0.000155293
0.000120073
7.94172e-05
5.04461e-05
3.68665e-05
2.97185e-05
2.93694e-05
3.66208e-05
4.97754e-05
7.84496e-05
0.000118749
0.000154046
0.000179843
0.000197405
0.00020888
0.000216105
0.000220474
0.000222996
0.00022437
0.00022506
0.000225341
0.000225342
0.000225061
0.000224365
0.000222974
0.000220424
0.000216013
0.000208736
0.000197199
0.000179569
0.000153699
0.000118359
7.82405e-05
4.977e-05
3.66249e-05
2.93968e-05
2.87325e-05
3.61472e-05
4.84475e-05
7.61427e-05
0.000115302
0.000150777
0.00017701
0.000195039
0.00020694
0.000214524
0.000219178
0.000221915
0.00022344
0.000224225
0.000224554
0.000224561
0.000224242
0.00022346
0.000221929
0.000219173
0.000214485
0.000206854
0.000194893
0.000176791
0.000150466
0.000114904
7.58917e-05
4.84446e-05
3.6149e-05
2.87594e-05
2.77877e-05
3.54506e-05
4.65281e-05
7.2646e-05
0.000110095
0.000145776
0.000172579
0.000191232
0.000203712
0.000211793
0.000216851
0.000219896
0.000221642
0.00022257
0.000222972
0.000222985
0.000222607
0.000221697
0.000219957
0.000216905
0.000211825
0.000203705
0.000191169
0.000172437
0.00014552
0.000109698
7.2347e-05
4.65293e-05
3.54497e-05
2.78137e-05
2.65467e-05
3.45411e-05
4.41122e-05
6.81502e-05
0.000103182
0.000138915
0.000166283
0.00018562
0.000198762
0.000207429
0.000212973
0.000216402
0.000218432
0.000219548
0.000220046
0.000220066
0.000219607
0.000218524
0.000216516
0.000213095
0.000207541
0.000198846
0.000185655
0.000166235
0.000138736
0.00010281
6.78204e-05
4.41206e-05
3.45373e-05
2.65713e-05
2.50241e-05
3.34172e-05
4.13184e-05
6.28607e-05
9.46744e-05
0.000129963
0.000157695
0.000177642
0.000191421
0.000200682
0.000206746
0.000210605
0.000212966
0.000214309
0.000214924
0.000214951
0.000214388
0.000213092
0.000210768
0.000206933
0.000200874
0.0001916
0.000177781
0.000157757
0.000129872
9.43898e-05
6.25515e-05
4.13446e-05
3.34086e-05
2.50465e-05
2.32367e-05
3.20512e-05
3.82191e-05
5.70174e-05
8.49898e-05
0.000118561
0.000146275
0.000166522
0.000180735
0.00019047
0.000197003
0.000201291
0.00020401
0.00020561
0.000206361
0.000206392
0.000205702
0.00020416
0.00020149