/*--------------------------------*- C++ -*----------------------------------*\
| =========                 |                                                 |
| \\      /  F ield         | OpenFOAM: The Open Source CFD Toolbox           |
|  \\    /   O peration     | Version:  2312                                  |
|   \\  /    A nd           | Website:  www.openfoam.com                      |
|    \\/     M anipulation  |                                                 |
\*---------------------------------------------------------------------------*/
FoamFile
{
    version     2.0;
    format      ascii;
    arch        "LSB;label=32;scalar=64";
    class       surfaceScalarField;
    location    "750";
    object      phi;
}
// * * * * * * * * * * * * * * * * * * * * * * * * * * * * * * * * * * * * * //

dimensions      [1 0 -1 0 0 0 0];

oriented        oriented;

internalField   nonuniform List<scalar> 
78300
(
-0.00015495
0.00034087
0.00757347
0.00243419
0.00146444
0.00978447
0.00211326
0.00494473
0.0150136
0.00215624
0.00547791
0.0196041
0.00225555
0.00601114
0.0241597
0.00236748
0.00646408
0.0284683
0.00244818
0.00687548
0.0324645
0.002455
0.00723238
0.0361356
0.00235316
0.00753059
0.0394558
0.00214092
0.00776991
0.0423726
0.00183217
0.00795478
0.0448488
0.0014464
0.00809086
0.0468589
0.0010047
0.00818497
0.0483828
0.000527584
0.0082439
0.0494055
3.54235e-05
0.00827106
0.0499181
-0.000451871
0.00826821
0.049916
-0.000914186
0.00823521
0.0493994
-0.00133141
0.00817066
0.0483726
-0.0016822
0.00806974
0.046845
-0.00194563
0.0079262
0.044832
-0.00210323
0.00773421
0.0423536
-0.00214439
0.00749098
0.0394347
-0.00207935
0.00719558
0.0361142
-0.00195737
0.0068525
0.0324462
-0.00183638
0.00646749
0.0284559
-0.00177361
0.00605189
0.0241555
-0.0018189
0.00556121
0.019609
-0.0022686
0.00506186
0.0150252
0.000197469
0.00157261
0.00979937
0.000366292
0.00759057
0.00328141
0.00432527
0.0097559
0.00533853
0.00429976
0.0179972
0.00610464
0.00766425
0.0250024
0.00600325
0.00858316
0.0307818
0.00573063
0.00905518
0.0359815
0.00541014
0.00936223
0.0407844
0.00507129
0.00959906
0.0452026
0.00469116
0.00980424
0.0492133
0.0042423
0.00998085
0.0527923
0.00370997
0.0101246
0.0559121
0.00309595
0.0102336
0.0585459
0.00241144
0.010311
0.0606731
0.00167287
0.0103612
0.0622794
0.000900141
0.0103894
0.0633546
0.000112978
0.0103998
0.0638924
-0.000668581
0.0103941
0.0638896
-0.00142528
0.0103731
0.0633462
-0.00213732
0.0103344
0.0622654
-0.00278796
0.0102753
0.0606538
-0.00336381
0.0101913
0.0585215
-0.00385994
0.0100805
0.0558843
-0.00428325
0.00994456
0.0527635
-0.00465872
0.00978914
0.0491869
-0.00502547
0.00962218
0.0451844
-0.00541775
0.00943913
0.0407827
-0.00580476
0.00919165
0.0360002
-0.0060421
0.00876504
0.0308192
-0.0053923
0.00785086
0.0250492
-0.00337839
0.00440202
0.0180463
0.00423397
0.00977564
0.00694646
0.00370182
0.0199436
0.00960394
0.00618262
0.0273864
0.0101939
0.00915616
0.0352453
0.00962044
0.0100735
0.0415207
0.00870221
0.0104039
0.0467991
0.0077586
0.0105214
0.0514607
0.00687186
0.0105665
0.055672
0.00604088
0.0105996
0.0594717
0.00523901
0.0106352
0.0628532
0.00443945
0.0106701
0.0657972
0.00362489
0.0106981
0.0682827
0.00278839
0.010716
0.0702919
0.00193089
0.0107242
0.0718104
0.0010585
0.0107252
0.0728274
0.000180604
0.0107215
0.0733358
-0.000693151
0.0107152
0.0733324
-0.0015531
0.0107065
0.0728173
-0.00239249
0.0106952
0.0717944
-0.00320818
0.0106801
0.0702714
-0.00400548
0.0106614
0.0682597
-0.00479889
0.0106426
0.0657745
-0.00561435
0.0106305
0.0628352
-0.00648744
0.0106336
0.0594647
-0.00745042
0.0106545
0.0556833
-0.00850294
0.0106715
0.0514964
-0.0095491
0.0106076
0.0468598
-0.0102379
0.010296
0.0415955
-0.00969707
0.00932669
0.0353105
-0.00701483
0.00621524
0.0274313
0.00352418
0.0199616
0.00705262
0.00409759
0.0279239
0.0102432
0.00691457
0.0369076
0.0110699
0.00961946
0.0447479
0.0106593
0.0104774
0.0509728
0.00972501
0.0107801
0.0561456
0.00864286
0.0108376
0.0606421
0.00756499
0.0107949
0.0646573
0.00654076
0.0107253
0.0682592
0.00557334
0.0106605
0.0714565
0.00464928
0.0106076
0.0742381
0.00375092
0.0105654
0.0765876
0.00286438
0.0105302
0.0784886
0.00198156
0.0105007
0.0799267
0.00109944
0.0104775
0.0808907
0.000218146
0.010462
0.0813733
-0.000661045
0.0104561
0.0813708
-0.00153752
0.0104604
0.0808835
-0.0024135
0.0104759
0.0799157
-0.00329652
0.0105035
0.0784758
-0.00420084
0.010546
0.0765763
-0.00514687
0.0106079
0.0742324
-0.0061585
0.010695
0.0714617
-0.0072537
0.010808
0.0682814
-0.00842739
0.0109335
0.0647026
-0.0096219
0.0110294
0.0607128
-0.0106656
0.0110033
0.0562356
-0.0111524
0.0106869
0.0510619
-0.0103364
0.00974175
0.0448068
-0.00710051
0.00687413
0.0369354
0.00386507
0.0279309
0.00788818
0.00436197
0.0360661
0.0108618
0.00736586
0.0460572
0.0114848
0.00967306
0.0538278
0.0110704
0.0103966
0.0597529
0.0101861
0.0106669
0.0647128
0.009112
0.0107075
0.0690564
0.00798855
0.0106327
0.0729306
0.00688414
0.010511
0.0763911
0.00582775
0.0103802
0.0794518
0.00482309
0.0102596
0.0821084
0.00386225
0.0101562
0.0843497
0.00293315
0.0100709
0.0861625
0.00202448
0.0100043
0.0875339
0.00112777
0.00995678
0.0884538
0.000236383
0.00992987
0.0889149
-0.000654976
0.00992488
0.0889139
-0.00155301
0.00994364
0.0884511
-0.00246641
0.00998737
0.0875308
-0.00340786
0.0100581
0.086161
-0.00439323
0.0101579
0.084353
-0.00543953
0.0102894
0.0821205
-0.0065573
0.0104505
0.0794773
-0.00774172
0.0106308
0.076434
-0.00895867
0.0108023
0.0729931
-0.0101271
0.0109138
0.0691361
-0.0110894
0.0108812
0.0647998
-0.0115451
0.0105736
0.0598268
-0.0109105
0.00974808
0.0538636
-0.00789562
0.00728333
0.046058
0.00413102
0.0360571
0.00848038
0.00455538
0.0440149
0.0112528
0.00752998
0.0548312
0.0116865
0.0094658
0.0623881
0.0112361
0.0100505
0.0679986
0.0103953
0.0102714
0.0727406
0.00936798
0.0102968
0.0769354
0.00826252
0.0102083
0.0806884
0.00714438
0.0100596
0.0840367
0.00605112
0.00988754
0.0869905
0.00499978
0.00971725
0.0895478
0.00399267
0.00956336
0.0917011
0.00302312
0.0094338
0.0934404
0.00208158
0.00933227
0.0947554
0.00115753
0.00926147
0.0956374
0.000241158
0.00922351
0.0960802
-0.000677579
0.00922047
0.0960806
-0.00160899
0.0092541
0.095639
-0.00256515
0.00932605
0.0947593
-0.00355914
0.00943732
0.0934485
-0.00460387
0.00958789
0.091716
-0.00570724
0.00977441
0.0895724
-0.00686698
0.00998727
0.0870276
-0.00806173
0.0102051
0.0840876
-0.00924618
0.0103934
0.0807519
-0.0103439
0.0105029
0.077006
-0.011234
0.0104685
0.0728071
-0.0117007
0.0101977
0.0680446
-0.0112509
0.00951529
0.0623975
-0.00845558
0.00744565
0.0548101
0.00436827
0.0439958
0.00894007
0.00464131
0.0516442
0.0114872
0.00746401
0.0630959
0.0117746
0.00905531
0.0703831
0.0112979
0.00951087
0.0757089
0.0104944
0.00967505
0.08025
0.00952038
0.00967915
0.0843005
0.00845703
0.00957995
0.0879389
0.0073582
0.00941645
0.091187
0.00626077
0.00921994
0.0940492
0.00518697
0.00901649
0.0965231
0.00414608
0.00882569
0.0986026
0.0031379
0.00866086
0.10028
0.0021563
0.00853026
0.101547
0.0011921
0.00843957
0.102397
0.000235003
0.00839242
0.102823
-0.000725993
0.00839179
0.102825
-0.00170232
0.00843956
0.102401
-0.00270547
0.00853668
0.101556
-0.00374592
0.00868218
0.100294
-0.0048306
0.00887228
0.0986243
-0.00595939
0.00909803
0.0965537
-0.00711988
0.00934243
0.0940895
-0.00828483
0.0095789
0.0912362
-0.00940973
0.00977186
0.0879936
-0.0104326
0.00988038
0.0843542
-0.0112648
0.00985813
0.0802927
-0.0117471
0.00964389
0.0757287
-0.0114483
0.00910425
0.0703722
-0.00889936
0.00740982
0.063064
0.00452203
0.0516171
0.00929996
0.00457991
0.0588188
0.0116502
0.00718159
0.0707384
0.0118204
0.00846896
0.0777548
0.0113228
0.00880779
0.0828298
0.0105492
0.0089142
0.0871881
0.00962402
0.00889242
0.0911011
0.00860757
0.00878228
0.094629
0.0075416
0.00861027
0.0977832
0.00645731
0.00840119
0.100563
0.00537665
0.00817912
0.102964
0.00431208
0.00796552
0.104981
0.003268
0.00777715
0.106606
0.00224229
0.00762631
0.107832
0.0012292
0.00752131
0.108654
0.000220361
0.00746803
0.109067
-0.000793398
0.00747014
0.10907
-0.00182149
0.00752958
0.108661
-0.00287231
0.00764603
0.107844
-0.00395187
0.00781625
0.106623
-0.00506121
0.00803255
0.105005
-0.00619376
0.00828122
0.102996
-0.00733327
0.00854119
0.100601
-0.00845266
0.00878418
0.0978251
-0.009515
0.00897803
0.094671
-0.0104736
0.0090912
0.091137
-0.0112651
0.00909324
0.08721
-0.011766
0.00894374
0.0828302
-0.0115943
0.00853974
0.0777314
-0.00925908
0.00717801
0.0707027
0.00453096
0.0587894
0.00958842
0.00435199
0.0653917
0.0117778
0.00668946
0.0776615
0.0118578
0.00771627
0.0844283
0.0113437
0.00795506
0.0892853
0.0105923
0.00800863
0.0934802
0.009707
0.00796053
0.0972653
0.00873368
0.00783956
0.100688
0.00770294
0.00766341
0.103755
0.00663875
0.00745079
0.10646
0.00555961
0.0072226
0.108797
0.00447822
0.00699983
0.110759
0.00340143
0.00680072
0.112339
0.00233109
0.00663981
0.113532
0.00126516
0.00652779
0.114331
0.000199311
0.00647204
0.114732
-0.000871834
0.00647696
0.114735
-0.0019536
0.00654434
0.114338
-0.0030498
0.00667258
0.113544
-0.00416132
0.00685629
0.112358
-0.00528443
0.00708489
0.110783
-0.00640929
0.00734189
0.108825
-0.0075193
0.00760474
0.106492
-0.00859182
0.0078466
0.103787
-0.00959931
0.00804043
0.100717
-0.0105086
0.00816294
0.0972857
-0.0112736
0.00819508
0.0934864
-0.0117933
0.00810893
0.089273
-0.01172
0.00782309
0.084399
-0.00955259
0.00674261
0.0776267
0.00436637
0.0653642
0.00981714
0.00395976
0.0712406
0.0118812
0.00599633
0.0837763
0.0118973
0.00680225
0.0903233
0.0113722
0.00696015
0.0949959
0.0106381
0.0069702
0.0990482
0.00978453
0.00689989
0.102718
0.00884736
0.00677079
0.106045
0.00784842
0.00659507
0.109031
0.00680459
0.00638678
0.111668
0.00572979
0.00616344
0.113949
0.00463525
0.00594402
0.115864
0.00352889
0.00574653
0.117407
0.00241544
0.00558618
0.11857
0.00129696
0.00547474
0.11935
0.000173831
0.00542037
0.119742
-0.00095452
0.005428
0.119744
-0.00208811
0.00549891
0.119357
-0.00322576
0.00563077
0.118583
-0.00436366
0.00581664
0.117424
-0.00549464
0.00604451
0.115885
-0.0066077
0.00629713
0.113972
-0.00768837
0.00655273
0.111693
-0.00871977
0.00678769
0.109054
-0.00968291
0.00697987
0.106062
-0.0105554
0.00711268
0.102726
-0.0113017
0.0071734
0.0990437
-0.0118351
0.00714181
0.0949764
-0.0118303
0.00695132
0.0902924
-0.00978977
0.00610444
0.0837449
0.00402567
0.0712165
0.00999428
0.00341785
0.0762665
0.0119637
0.00511946
0.0890019
0.0119382
0.00573571
0.0953636
0.0114092
0.00583132
0.0998845
0.0106908
0.00580928
0.103817
0.00986291
0.00572427
0.107386
0.00895486
0.00559254
0.110628
0.00798187
0.00542314
0.113543
0.00695494
0.00522692
0.116122
0.00588377
0.00501819
0.118353
0.00477743
0.00481335
0.120229
0.00364401
0.00462875
0.12174
0.00249052
0.00447879
0.12288
0.00132272
0.00437508
0.123644
0.000145563
0.00432581
0.124028
-0.00103618
0.00433573
0.12403
-0.00221747
0.00440592
0.123651
-0.00339211
0.00453348
0.122891
-0.00455242
0.00471108
0.121755
-0.00568904
0.00492674
0.120246
-0.00679107
0.00516412
0.118372
-0.00784696
0.00540388
0.11614
-0.00884503
0.00562602
0.113558
-0.00977344
0.0058131
0.110637
-0.0106168
0.00595244
0.107386
-0.0113469
0.00603499
0.103806
-0.0118854
0.00604503
0.099862
-0.0119235
0.00592728
0.0953336
-0.00997523
0.00527622
0.0889744
0.00352404
0.0762452
0.010127
0.00274939
0.0803862
0.012028
0.00408428
0.0932682
0.0119782
0.00453318
0.0994814
0.0114516
0.00458229
0.103882
0.0107482
0.00453982
0.107718
0.00994178
0.00444873
0.111205
0.00905666
0.00432155
0.114377
0.00810345
0.00416542
0.117233
0.00708874
0.00398902
0.119762
0.00601884
0.00380383
0.121953
0.00490081
0.00362334
0.123796
0.00374276
0.00346129
0.125282
0.00255324
0.00333028
0.126403
0.00134128
0.00324051
0.127154
0.000115992
0.00319943
0.127532
-0.00111318
0.00321121
0.127534
-0.00233639
0.00327671
0.12716
-0.0035433
0.00339304
0.126412
-0.00472318
0.00355342
0.125294
-0.0058652
0.0037471
0.12381
-0.00695912
0.00396002
0.121967
-0.007996
0.00417609
0.119774
-0.00896839
0.00437914
0.117241
-0.0098693
0.00455542
0.11438
-0.0106885
0.0046949
0.111199
-0.0114021
0.00479009
0.107703
-0.0119377
0.00482814
0.103859
-0.0119988
0.00476393
0.0994535
-0.010115
0.0042821
0.0932444
0.00288634
0.0803674
0.0102221
0.00198192
0.0835337
0.0120767
0.00292312
0.0965186
0.012015
0.00321917
0.10262
0.0114949
0.00323355
0.106932
0.0108058
0.00318065
0.110695
0.0100169
0.0030917
0.114119
0.00914926
0.0029764
0.117238
0.00821005
0.00284064
0.120048
0.00720289
0.00269141
0.122539
0.00613164
0.00253762
0.124699
0.00500203
0.00238965
0.126517
0.00382198
0.00225814
0.127983
0.00260149
0.00215289
0.12909
0.00135201
0.00208206
0.129831
8.61577e-05
0.00205154
0.130204
-0.00118278
0.00206472
0.130206
-0.00244111
0.0021222
0.129836
-0.00367519
0.00222161
0.129097
-0.00487196
0.00235743
0.127992
-0.00601968
0.00252118
0.126527
-0.00710874
0.00270189
0.124709
-0.00813209
0.00288716
0.122546
-0.00908527
0.00306471
0.120052
-0.00996454
0.00322372
0.117236
-0.0107629
0.00335598
0.114111
-0.0114598
0.00345475
0.110679
-0.0119869
0.00350911
0.10691
-0.0120571
0.00348423
0.102595
-0.0102153
0.00315482
0.0964975
0.00214261
0.0835167
0.0102846
0.00114506
0.0856598
0.0121122
0.00167265
0.0987102
0.012047
0.00182431
0.104738
0.011535
0.00181189
0.108991
0.0108582
0.0017557
0.112705
0.0100826
0.00167547
0.116088
0.00922698
0.00157826
0.11917
0.00829644
0.00146901
0.121949
0.00729267
0.00135314
0.124414
0.00621803
0.00123712
0.126553
0.00507745
0.00112803
0.128353
0.00387893
0.00103302
0.129806
0.00263345
0.000958614
0.130903
0.0013544
0.000910276
0.131639
5.68909e-05
0.000891971
0.132008
-0.00124293
0.000906031
0.13201
-0.00252859
0.000952903
0.131643
-0.00378404
0.00103102
0.13091
-0.00499465
0.00113675
0.129814
-0.00614801
0.00126441
0.128361
-0.00723485
0.00140671
0.126559
-0.00824941
0.00155526
0.124418
-0.00918892
0.00170146
0.12195
-0.0100518
0.00183732
0.119165
-0.010833
0.00195593
0.116077
-0.0115143
0.00205101
0.112688
-0.01203
0.00211346
0.108969
-0.0121003
0.00211875
0.104714
-0.0102815
0.00193248
0.0986908
0.0013248
0.0856439
0.0103179
0.000269865
0.0867316
0.0121358
0.000372437
0.0998142
0.0120729
0.000383471
0.105805
0.0115684
0.000348326
0.110029
0.0109003
0.000292922
0.113719
0.010133
0.00022552
0.117081
0.00928391
0.000150604
0.120145
0.00835701
7.21107e-05
0.122908
0.00735301
-6.01374e-06
0.12536
0.00627366
-7.99263e-05
0.127488
0.00512356
-0.000145903
0.12928
0.00391097
-0.000200589
0.130727
0.00264758
-0.000241001
0.131819
0.001348
-0.000264732
0.132551
2.88858e-05
-0.000269931
0.132919
-0.00129188
-0.000255488
0.13292
-0.00259614
-0.000221049
0.132555
-0.00386647
-0.000167145
0.131824
-0.00508717
-9.52999e-05
0.130733
-0.00624541
-7.94262e-06
0.129287
-0.007332
9.15621e-05
0.127493
-0.00834173
0.000199014
0.125363
-0.00927274
0.000309589
0.122908
-0.0101244
0.000417949
0.120139
-0.010893
0.00051854
0.11707
-0.0115613
0.000605519
0.113702
-0.0120657
0.000671623
0.110007
-0.0121297
0.000702709
0.105782
-0.0103169
0.000656105
0.0997955
0.000466088
0.0867161
0.010323
-0.000611447
0.0867326
0.0121478
-0.000936377
0.0998159
0.0120914
-0.00106628
0.105808
0.0115924
-0.00112373
0.110032
0.0109285
-0.00117743
0.113722
0.0101639
-0.0012307
0.117085
0.00931555
-0.00128168
0.120149
0.00838732
-0.00132748
0.122912
0.00737989
-0.00136587
0.125364
0.00629503
-0.00139566
0.127492
0.00513758
-0.00141671
0.129285
0.0039161
-0.00142952
0.130731
0.00264274
-0.00143483
0.131823
0.00133255
-0.00143329
0.132555
2.77956e-06
-0.0014253
0.132923
-0.00132817
-0.00141091
0.132924
-0.0026416
-0.00138988
0.132559
-0.00391958
-0.00136169
0.131828
-0.00514606
-0.00132557
0.130737
-0.00630791
-0.0012807
0.129291
-0.00739574
-0.00122636
0.127498
-0.00840434
-0.00116239
0.125367
-0.00933187
-0.00108977
0.122912
-0.0101779
-0.00101098
0.120143
-0.0109391
-0.000930121
0.117073
-0.0115985
-0.000852481
0.113706
-0.0120929
-0.000783343
0.11001
-0.0121464
-0.000726342
0.105784
-0.0103233
-0.000631992
0.0997969
-0.000399847
0.0867169
0.0102996
-0.00146624
0.0856628
0.0121474
-0.00221206
0.0987152
0.0121013
-0.00248735
0.104745
0.0116055
-0.00257034
0.109
0.0109412
-0.00262466
0.112715
0.0101733
-0.00266534
0.116098
0.00931973
-0.00269334
0.119181
0.00838523
-0.00270708
0.121961
0.00737122
-0.00270613
0.124426
0.00628031
-0.00269229
0.126565
0.00511801
-0.00266908
0.128366
0.00389331
-0.00264089
0.129819
0.0026184
-0.00261205
0.130916
0.00130813
-0.00258614
0.131651
-2.08052e-05
-0.00256561
0.13202
-0.00135062
-0.00255167
0.132022
-0.00266328
-0.00254413
0.131655
-0.00394138
-0.00254151
0.130922
-0.00516905
-0.00254102
0.129826
-0.00633306
-0.00253863
0.128373
-0.00742367
-0.00252962
0.126571
-0.00843492
-0.00250948
0.12443
-0.00936431
-0.00247503
0.121961
-0.0102107
-0.0024256
0.119177
-0.01097
-0.00236354
0.116089
-0.0116249
-0.00229324
0.112699
-0.0121112
-0.00221795
0.108978
-0.0121502
-0.00213055
0.104721
-0.0103011
-0.00188913
0.0986953
-0.00123975
0.0856464
0.0102457
-0.00226207
0.0835384
0.0121329
-0.00341352
0.0965264
0.0121018
-0.00384337
0.102632
0.0116078
-0.00395896
0.106946
0.0109385
-0.00401944
0.110711
0.0101616
-0.00405177
0.114137
0.00929695
-0.0040601
0.117257
0.00835098
-0.00404447
0.120067
0.00732708
-0.00400684
0.122559
0.00622946
-0.0039522
0.124719
0.00506482
-0.00388787
0.126537
0.00384263
-0.00382197
0.128003
0.00257483
-0.00376208
0.12911
0.00127519
-0.00371424
0.129851
-4.11421e-05
-0.00368266
0.130224
-0.00135833
-0.00366938
0.130225
-0.00266015
-0.00367445
0.129856
-0.00393069
-0.00369565
0.129117
-0.00515507
-0.00372847
0.128012
-0.00632013
-0.00376628
0.126546
-0.00741543
-0.00380063
0.124728
-0.00843374
-0.00382267
0.122566
-0.0093708
-0.00382483
0.120071
-0.0102237
-0.00380276
0.117255
-0.0109868
-0.00375639
0.114129
-0.0116412
-0.00368872
0.110696
-0.0121204
-0.00360053
0.106925
-0.0121398
-0.00347374
0.102607
-0.0102481
-0.00307393
0.0965052
-0.00202061
0.0835211
0.0101578
-0.00296732
0.0803922
0.0121018
-0.00450164
0.0932781
0.0120925
-0.00510113
0.0994961
0.0116002
-0.0052606
0.103901
0.0109226
-0.00533583
0.107739
0.0101314
-0.00536599
0.111228
0.00924956
-0.00535942
0.114402
0.0082867
-0.00531864
0.117259
0.0072492
-0.00524862
0.119789
0.00614388
-0.00515806
0.12198
0.0049792
-0.00505813
0.123823
0.00376518
-0.00496024
0.125308
0.002513
-0.00487451
0.126429
0.00123463
-0.00480879
0.12718
-5.75485e-05
-0.00476832
0.127558
-0.00135065
-0.00475589
0.12756
-0.00263163
-0.00477162
0.127186
-0.00388716
-0.00481302
0.126438
-0.00510389
-0.00487469
0.125319
-0.0062693
-0.00494793
0.123835
-0.00737194
-0.00502149
0.121992
-0.00840253
-0.0050824
0.1198
-0.00935394
-0.00511847
0.117267
-0.0102202
-0.00512088
0.114405
-0.0109926
-0.00508604
0.111225
-0.0116494
-0.00501453
0.107727
-0.0121208
-0.00490356
0.103881
-0.0121126
-0.00472398
0.0994712
-0.0101606
-0.00414737
0.0932554
-0.00271011
0.0803737
0.0100302
-0.00355207
0.0762734
0.0120509
-0.00544084
0.089013
0.0120737
-0.00623321
0.0953808
0.0115853
-0.00645204
0.0999064
0.0108969
-0.00655253
0.103842
0.0100862
-0.00658752
0.107415
0.00918078
-0.00657107
0.110659
0.00819507
-0.00650976
0.113575
0.00713988
-0.00641268
0.116154
0.00602574
-0.0062929
0.118386
0.00486326
-0.00616511
0.120261
0.00366294
-0.00604333
0.121772
0.00243467
-0.00593908
0.122912
0.00118771
-0.00586098
0.123676
-6.91506e-05
-0.00581461
0.124059
-0.00132733
-0.00580293
0.124062
-0.00257779
-0.0058264
0.123682
-0.00381077
-0.0058827
0.122922
-0.00501571
-0.00596621
0.121785
-0.0061808
-0.00606775
0.120277
-0.00729388
-0.00617407
0.118403
-0.00834285
-0.00626902
0.116171
-0.00931643
-0.00633577
0.113589
-0.0102037
-0.00636009
0.110669
-0.0109913
-0.00633323
0.107417
-0.011653
-0.00625136
0.103836
-0.0121133
-0.00610616
0.0998896
-0.0120662
-0.0058558
0.0953563
-0.0100328
-0.00507519
0.0889888
-0.00327751
0.0762535
0.00985606
-0.00399035
0.0712478
0.011977
-0.00620213
0.0837877
0.0120471
-0.00722016
0.0903422
0.0115668
-0.00751678
0.0950209
0.0108651
-0.00765322
0.0990781
0.010029
-0.00769893
0.102751
0.00909292
-0.00767645
0.10608
0.00807801
-0.00759873
0.109067
0.00700125
-0.00748071
0.111705
0.00587759
-0.00734001
0.113985
0.00472005
-0.0071944
0.1159
0.00353908
-0.007059
0.117443
0.00234261
-0.00694546
0.118606
0.00113633
-0.00686172
0.119385
-7.53756e-05
-0.00681298
0.119777
-0.0012887
-0.00680197
0.119779
-0.00249953
-0.00682939
0.119392
-0.00370269
-0.00689358
0.118617
-0.00489086
-0.00698996
0.117458
-0.00605436
-0.00710985
0.115919
-0.00718053
-0.00724
0.114007
-0.00825427
-0.00736249
0.111727
-0.00925893
-0.00745638
0.109089
-0.0101768
-0.0075013
0.106098
-0.010987
-0.00748127
0.102762
-0.0116567
-0.0073846
0.0990786
-0.0121012
-0.00719474
0.095009
-0.0119984
-0.00685293
0.0903197
-0.00985816
-0.00583075
0.0837626
-0.00369679
0.0712267
0.00962771
-0.00426434
0.0653984
0.0118776
-0.00676559
0.0776723
0.0120153
-0.0080505
0.0844484
0.0115482
-0.00844419
0.0893129
0.0108294
-0.00862472
0.0935136
0.00996023
-0.00868407
0.0973024
0.00898544
-0.00865687
0.100728
0.00793538
-0.00856622
0.103795
0.00683449
-0.00843426
0.1065
0.00570254
-0.00828307
0.108836
0.0045541
-0.00813178
0.110798
0.00339867
-0.00799502
0.112378
0.00224106
-0.00788254
0.11357
0.00108304
-0.00780079
0.114368
-7.57781e-05
-0.0077535
0.11477
-0.00123648
-0.00774296
0.114772
-0.00239993
-0.00777014
0.114375
-0.00356575
-0.00783437
0.113581
-0.00473124
-0.00793266
0.112394
-0.00588965
-0.0080587
0.110819
-0.00702925
-0.00820098
0.108862
-0.00813277
-0.00834196
0.106528
-0.00917778
-0.0084584
0.103824
-0.0101378
-0.00852397
0.100755
-0.0109815
-0.00851322
0.0973238
-0.0116647
-0.00840255
0.0935244
-0.0120892
-0.00816116
0.0893093
-0.0119087
-0.0077077
0.08443
-0.00963054
-0.00639746
0.0776472
-0.00395156
0.0653764
0.00933784
-0.00436986
0.058825
0.0117508
-0.00712071
0.0707484
0.0119804
-0.00871702
0.0777755
0.0115297
-0.00922407
0.0828597
0.0107865
-0.00945236
0.0872244
0.00987425
-0.00952373
0.0911411
0.00885276
-0.00949102
0.0946705
0.00776411
-0.00939132
0.0978248
0.00664055
-0.00925461
0.100604
0.00550524
-0.00910568
0.103004
0.00437267
-0.00896295
0.10502
0.00324942
-0.00883796
0.106644
0.00213656
-0.00873743
0.10787
0.00103131
-0.00866492
0.108692
-7.06319e-05
-0.00862284
0.109106
-0.00117439
-0.00861272
0.109108
-0.00228508
-0.00863559
0.108699
-0.00340693
-0.00869189
0.107882
-0.0045419
-0.00878079
0.106661
-0.00568808
-0.00889885
0.105042
-0.00683675
-0.00903863
0.103033
-0.0079705
-0.00918575
0.100638
-0.00906261
-0.00931736
0.0978621
-0.0100772
-0.00940309
0.0947085
-0.0109692
-0.00940727
0.0911753
-0.0116775
-0.00928943
0.0872488
-0.0120805
-0.00899718
0.0828681
-0.0117972
-0.00841661
0.0777642
-0.00934429
-0.00676886
0.0707247
-0.00404173
0.0588032
0.0089755
-0.00432483
0.0516496
0.0115869
-0.00725967
0.0631046
0.0119334
-0.00920783
0.0704044
0.0114999
-0.00983906
0.075741
0.0107224
-0.0101134
0.0802886
0.00975644
-0.010191
0.0843421
0.00868379
-0.0101522
0.087981
0.00755949
-0.0100501
0.0912281
0.00642159
-0.00992138
0.0940888
0.00529372
-0.00979052
0.0965612
0.00418686
-0.00967173
0.0986397
0.00310282
-0.00957154
0.100316
0.00203774
-0.00949238
0.101583
0.000985566
-0.00943545
0.102433
-6.08132e-05
-0.00940159
0.10286
-0.00110866
-0.00939181
0.102862
-0.00216522
-0.00940733
0.102439
-0.00323799
-0.00944907
0.101593
-0.00433366
-0.00951788
0.100332
-0.00545569
-0.00961384
0.098661
-0.00660136
-0.00973425
0.0965898
-0.0077573
-0.00987069
0.0941251
-0.00889589
-0.0100051
0.0912713
-0.00997404
-0.0101066
0.0880288
-0.0109314
-0.0101311
0.08439
-0.0116815
-0.0100185
0.0803292
-0.0120664
-0.00968457
0.0757649
-0.0116562
-0.00897054
0.0704037
-0.00898804
-0.00694476
0.0630849
-0.00399065
0.051631
0.00851459
-0.00417251
0.0440217
0.0113497
-0.00716663
0.0548396
0.0118388
-0.00949235
0.06241
0.0114263
-0.010257
0.0680324
0.0106045
-0.0105677
0.0727803
0.00957918
-0.0106449
0.0769766
0.00846059
-0.0106036
0.0807286
0.00731506
-0.0105122
0.0840748
0.00618218
-0.0104101
0.0870263
0.00507991
-0.0103159
0.0895817
0.0040117
-0.0102363
0.091734
0.0029727
-0.0101718
0.093473
0.00195501
-0.0101211
0.0947883
0.000950449
-0.0100837
0.0956709
-4.80731e-05
-0.01006
0.0961143
-0.00104704
-0.0100508
0.0961154
-0.00205357
-0.0100571
0.0956744
-0.00307568
-0.01008
0.0947949
-0.0041228
-0.010121
0.0934839
-0.00520435
-0.0101821
0.091751
-0.00632558
-0.0102656
0.0896067
-0.00748193
-0.0103705
0.0870607
-0.00865215
-0.0104873
0.0841196
-0.00979181
-0.0105914
0.080783
-0.0108262
-0.010636
0.0770367
-0.011637
-0.0105416
0.0728382
-0.0120096
-0.0101854
0.0680754
-0.0114513
-0.00933866
0.0624244
-0.00854187
-0.0069148
0.0548283
-0.00385467
0.0440108
0.00792191
-0.0039502
0.0360744
0.010952
-0.00678412
0.0460694
0.0116246
-0.00951137
0.0538509
0.0112394
-0.0104013
0.0597873
0.0103663
-0.0107305
0.0647513
0.00928885
-0.0108094
0.0690941
0.00814863
-0.0107839
0.0729655
0.00701764
-0.0107315
0.0764227
0.00592442
-0.0106825
0.0794806
0.00487451
-0.0106457
0.0821355
0.0038604
-0.0106187
0.0843762
0.00287093
-0.0105974
0.0861891
0.00189609
-0.0105788
0.0875614
0.000929114
-0.0105627
0.0884824
-3.43152e-05
-0.0105499
0.0889447
-0.000997023
-0.0105415
0.0889448
-0.00196224
-0.0105383
0.0884828
-0.00293571
-0.0105407
0.0875631
-0.00392674
-0.0105493
0.0861935
-0.00494769
-0.0105668
0.0843853
-0.00601221
-0.0105972
0.0821519
-0.00712877
-0.010646
0.0795072
-0.00829117
-0.0107144
0.076462
-0.00946584
-0.0107907
0.073019
-0.0105745
-0.0108354
0.0691602
-0.0114612
-0.0107627
0.0648231
-0.0118275
-0.0104109
0.0598496
-0.0110913
-0.00945417
0.0538838
-0.00797371
-0.00662509
0.0460748
-0.0036815
0.0360718
0.0070849
-0.00359746
0.0279347
0.0103214
-0.00611482
0.0369244
0.0111887
-0.00911174
0.0447709
0.010796
-0.010047
0.0510045
0.00986529
-0.0103907
0.0561785
0.0087745
-0.0105142
0.0606718
0.00768023
-0.0105645
0.0646827
0.00663154
-0.0106031
0.068281
0.00563385
-0.0106463
0.0714759
0.00467295
-0.0106898
0.0742566
0.00373151
-0.0107269
0.0766061
0.00279621
-0.0107536
0.0785079
0.00185961
-0.0107691
0.0799473
0.000919563
-0.0107748
0.0809129
-2.1682e-05
-0.0107732
0.0813971
-0.000960739
-0.0107659
0.081396
-0.00189461
-0.0107535
0.0809099
-0.00282285
-0.0107351
0.0799431
-0.00374994
-0.0107099
0.0785039
-0.00468741
-0.0106773
0.0766045
-0.00565214
-0.0106409
0.07426
-0.00666467
-0.0106067
0.0714877
-0.00774156
-0.0105819
0.068305
-0.00887724
-0.0105703
0.0647232
-0.0100155
-0.0105512
0.0607302
-0.0109889
-0.0104527
0.0562509
-0.0113958
-0.0101138
0.0510759
-0.0104883
-0.00914266
0.0448188
-0.00717372
-0.00605916
0.0369497
-0.00342749
0.0279446
0.00698492
-0.00426965
0.0199539
0.0096616
-0.00426852
0.0274038
0.0102762
-0.00766538
0.0352662
0.00971132
-0.00858818
0.0415437
0.0087891
-0.00905882
0.0468199
0.00783549
-0.00936141
0.0514771
0.00693487
-0.00959557
0.0556844
0.006087
-0.00980099
0.0594818
0.00526452
-0.00998084
0.0628627
0.00443979
-0.0101291
0.0658072
0.00359552
-0.0102438
0.0682938
0.00272415
-0.010326
0.0703042
0.00182683
-0.0103801
0.0718242
0.000911276
-0.0104113
0.0728429
-1.23427e-05
-0.010423
0.073353
-0.000932314
-0.0104174
0.0733511
-0.00183738
-0.0103949
0.0728373
-0.00271847
-0.0103537
0.0718156
-0.00357079
-0.0102907
0.0702936
-0.00439642
-0.0102014
0.0682822
-0.00520718
-0.0100835
0.0657966
-0.00602656
-0.00993769
0.062856
-0.00688614
-0.0097695
0.0594832
-0.00781701
-0.00958519
0.0556985
-0.00882111
-0.00937901
0.0515082
-0.00980507
-0.0091079
0.0468687
-0.0104217
-0.00866205
0.0416025
-0.00981048
-0.00774447
0.0353178
-0.00705841
-0.00432537
0.0274409
-0.00418945
0.0199701
0.00330857
-0.000320117
0.0097636
0.00539128
-0.00147447
0.0180129
0.00614859
-0.00495208
0.0250174
0.00603697
-0.00548523
0.0307943
0.00575596
-0.00601477
0.0359899
0.00542684
-0.0064588
0.0407886
0.0050819
-0.00686702
0.0452037
0.00469668
-0.00722504
0.0492143
0.00424071
-0.00752555
0.0527944
0.0036985
-0.007768
0.0559155
0.00306977
-0.00795542
0.0585511
0.00236594
-0.00809387
0.0606804
0.00160416
-0.00818966
0.0622884
0.000804916
-0.00824974
0.0633651
-1.05931e-05
-0.00827764
0.0639041
-0.000821521
-0.00827499
0.0639024
-0.00160729
-0.0082418
0.06336
-0.00234729
-0.00817664
0.0622799
-0.0030225
-0.00807532
0.0606686
-0.0036184
-0.00793109
0.0585364
-0.00412834
-0.00773819
0.0558991
-0.00455651
-0.00749348
0.0527777
-0.00492561
-0.00719474
0.0491993
-0.00527251
-0.00684522
0.0451943
-0.00562695
-0.00645339
0.0407909
-0.00596709
-0.00602182
0.036007
-0.00615012
-0.00551841
0.0308251
-0.00542819
-0.00503347
0.0250551
-0.00339749
-0.00151896
0.0180525
-0.000345642
0.00978041
-0.000140405
0.00757968
0.0024333
0.00978988
0.00209968
0.0150189
0.00213091
0.0196085
0.00222339
0.024163
0.00233859
0.0284703
0.00242669
0.0324656
0.00244052
0.0361359
0.00234308
0.0394564
0.00213142
0.0423739
0.00181966
0.0448512
0.0014273
0.0468624
0.000976314
0.0483874
0.000487904
0.049411
-1.70641e-05
0.0499243
-0.000518065
0.049923
-0.000994567
0.049407
-0.00142593
0.0483808
-0.00179071
0.0468534
-0.00206736
0.0448404
-0.00223723
0.0423619
-0.0022896
0.0394434
-0.00223271
0.0361232
-0.00211286
0.0324556
-0.00198669
0.0284648
-0.00190167
0.0241634
-0.00191034
0.0196152
-0.00233637
0.0150299
0.000180322
0.00980241
0.00759407
0.00112463
9.04768e-05
0.00635836
0.00226392
0.000111302
0.00853388
0.00293485
0.000966274
0.0133764
0.00346298
0.00154239
0.0175335
0.00369629
0.00230857
0.0216179
0.00367744
0.00302837
0.0254588
0.00346782
0.00365554
0.0290186
0.00314032
0.00417295
0.0322902
0.00274742
0.00459532
0.0352534
0.00231763
0.00494267
0.0378597
0.00186332
0.00522931
0.0400738
0.00138831
0.00546208
0.0418718
0.000893525
0.00564208
0.0432355
0.00038106
0.00576692
0.0441511
-0.000144376
0.00583299
0.0446105
-0.000676789
0.0058384
0.04461
-0.00121074
0.00578386
0.0441495
-0.00174325
0.00567278
0.0432323
-0.00227426
0.00550902
0.041867
-0.00280407
0.00529411
0.0400677
-0.00332949
0.00502636
0.0378527
-0.00383376
0.0046938
0.0352452
-0.00427509
0.00427438
0.0322811
-0.00457294
0.00373471
0.0290094
-0.00461673
0.00304924
0.0254504
-0.00431044
0.0022376
0.0216117
-0.00359262
0.00136067
0.0175305
-0.00263111
0.000688551
0.0133751
-0.00121617
-0.000149131
0.00853357
1.67235e-05
0.00635767
0.000409601
0.00106011
0.00837667
0.00199763