/*--------------------------------*- C++ -*----------------------------------*\
| =========                 |                                                 |
| \\      /  F ield         | OpenFOAM: The Open Source CFD Toolbox           |
|  \\    /   O peration     | Version:  2312                                  |
|   \\  /    A nd           | Website:  www.openfoam.com                      |
|    \\/     M anipulation  |                                                 |
\*---------------------------------------------------------------------------*/
FoamFile
{
    version     2.0;
    format      ascii;
    arch        "LSB;label=32;scalar=64";
    class       volScalarField;
    location    "750";
    object      T;
}
// * * * * * * * * * * * * * * * * * * * * * * * * * * * * * * * * * * * * * //

dimensions      [0 0 0 1 0 0 0];

internalField   nonuniform List<scalar> 
27000
(
425.796
355.486
347.037
343.06
342.514
342.715
343.007
343.296
343.566
343.793
343.973
344.11
344.21
344.277
344.312
344.314
344.283
344.221
344.125
343.99
343.811
343.581
343.305
343.002
342.684
342.441
342.919
346.797
355.127
425.077
336.194
354.41
348.266
346.717
346.576
346.935
347.321
347.631
347.869
348.047
348.177
348.271
348.336
348.378
348.401
348.404
348.389
348.353
348.293
348.201
348.067
347.878
347.618
347.271
346.832
346.406
346.476
347.976
354.126
336.218
342.719
345.925
348.351
348.095
348.003
348.142
348.363
348.573
348.743
348.873
348.969
349.037
349.085
349.115
349.131
349.134
349.124
349.098
349.052
348.979
348.873
348.724
348.524
348.275
348.008
347.826
347.896
348.176
345.855
342.748
342.648
346.545
348.133
348.419
348.444
348.511
348.641
348.792
348.934
349.053
349.146
349.216
349.265
349.297
349.314
349.316
349.303
349.272
349.22
349.143
349.036
348.896
348.727
348.546
348.39
348.309
348.295
348.051
346.534
342.685
343.078
347.146
348.399
348.633
348.684
348.727
348.805
348.911
349.024
349.13
349.219
349.29
349.341
349.375
349.393
349.393
349.377
349.342
349.286
349.207
349.104
348.981
348.848
348.724
348.636
348.597
348.568
348.374
347.169
343.124
343.513
347.57
348.623
348.817
348.863
348.893
348.943
349.016
349.104
349.193
349.274
349.341
349.393
349.427
349.444
349.445
349.427
349.39
349.333
349.258
349.165
349.064
348.964
348.884
348.836
348.819
348.797
348.636
347.619
343.565
343.914
347.864
348.775
348.954
349.001
349.027
349.062
349.116
349.184
349.257
349.328
349.39
349.438
349.472
349.489
349.488
349.47
349.434
349.381
349.313
349.234
349.153
349.081
349.028
349
348.99
348.967
348.816
347.928
343.969
344.249
348.068
348.875
349.047
349.101
349.13
349.162
349.206
349.261
349.322
349.383
349.439
349.484
349.515
349.531
349.53
349.513
349.48
349.432
349.372
349.307
349.243
349.188
349.15
349.129
349.116
349.083
348.932
348.139
344.303
344.527
348.208
348.936
349.107
349.169
349.206
349.241
349.282
349.33
349.384
349.438
349.487
349.528
349.556
349.571
349.571
349.555
349.525
349.483
349.432
349.377
349.325
349.28
349.247
349.225
349.203
349.156
349.001
348.278
344.574
344.753
348.302
348.97
349.14
349.212
349.258
349.299
349.341
349.388
349.438
349.487
349.532
349.569
349.595
349.609
349.609
349.596
349.569
349.532
349.488
349.44
349.394
349.353
349.32
349.29
349.257
349.197
349.037
348.368
344.794
344.931
348.364
348.985
349.155
349.236
349.291
349.339
349.385
349.433
349.482
349.528
349.571
349.605
349.63
349.643
349.643
349.631
349.608
349.575
349.535
349.492
349.448
349.407
349.369
349.332
349.287
349.215
349.05
348.425
344.967
345.065
348.403
348.988
349.158
349.245
349.309
349.363
349.415
349.466
349.515
349.561
349.601
349.635
349.658
349.671
349.672
349.661
349.64
349.609
349.572
349.531
349.487
349.444
349.4
349.354
349.299
349.218
349.051
348.459
345.097
345.159
348.427
348.986
349.154
349.247
349.316
349.377
349.433
349.487
349.538
349.584
349.624
349.656
349.679
349.691
349.692
349.683
349.663
349.634
349.598
349.557
349.512
349.466
349.417
349.364
349.3
349.212
349.044
348.478
345.188
345.219
348.44
348.981
349.149
349.244
349.318
349.383
349.442
349.499
349.55
349.597
349.637
349.669
349.692
349.704
349.705
349.696
349.677
349.649
349.613
349.572
349.526
349.476
349.423
349.365
349.296
349.204
349.036
348.487
345.246
345.248
348.444
348.976
349.143
349.24
349.316
349.382
349.444
349.502
349.554
349.601
349.642
349.673
349.696
349.708
349.709
349.7
349.681
349.653
349.618
349.576
349.529
349.478
349.422
349.361
349.29
349.196
349.029
348.489
345.273
345.247
348.441
348.973
349.139
349.236
349.311
349.378
349.44
349.497
349.55
349.597
349.637
349.669
349.692
349.704
349.705
349.696
349.676
349.648
349.612
349.57
349.523
349.471
349.416
349.355
349.284
349.19
349.024
348.485
345.271
345.215
348.432
348.971
349.138
349.232
349.305
349.37
349.429
349.486
349.538
349.585
349.625
349.657
349.679
349.691
349.692
349.683
349.663
349.634
349.597
349.554
349.507
349.457
349.404
349.345
349.277
349.186
349.021
348.475
345.24
345.153
348.415
348.97
349.136
349.227
349.296
349.356
349.412
349.466
349.517
349.563
349.604
349.637
349.659
349.671
349.672
349.661
349.64
349.61
349.572
349.529
349.483
349.434
349.384
349.331
349.269
349.182
349.018
348.458
345.178
345.056
348.387
348.966
349.133
349.219
349.281
349.335
349.386
349.437
349.487
349.534
349.575
349.609
349.632
349.644
349.645
349.633
349.609
349.577
349.537
349.493
349.447
349.401
349.356
349.309
349.254
349.176
349.013
348.43
345.082
344.92
348.343
348.958
349.124
349.202
349.256
349.303
349.35
349.398
349.448
349.495
349.539
349.574
349.599
349.612
349.611
349.598
349.572
349.536
349.493
349.446
349.399
349.355
349.314
349.275
349.23
349.161
349.002
348.387
344.948
344.741
348.278
348.938
349.103
349.172
349.216
349.256
349.299
349.347
349.399
349.449
349.496
349.534
349.561
349.574
349.573
349.558
349.529
349.489
349.441
349.389
349.338
349.293
349.255
349.223
349.189
349.131
348.977
348.321
344.77
344.513
348.181
348.899
349.064
349.123
349.158
349.193
349.235
349.285
349.341
349.397
349.449
349.49
349.52
349.534
349.533
349.515
349.483
349.437
349.382
349.323
349.265
349.215
349.176
349.149
349.125
349.079
348.93
348.221
344.543
344.234
348.039
348.833
348.998
349.048
349.076
349.109
349.155
349.213
349.278
349.342
349.4
349.446
349.478
349.493
349.492
349.473
349.437
349.385
349.322
349.252
349.182
349.121
349.076
349.048
349.031
348.996
348.85
348.073
344.265
343.898
347.832
348.727
348.898
348.942
348.968
349.006
349.063
349.135
349.213
349.287
349.352
349.402
349.436
349.452
349.451
349.431
349.392
349.336
349.264
349.181
349.094
349.015
348.954
348.917
348.9
348.873
348.724
347.854
343.926
343.494
347.533
348.568
348.755
348.799
348.831
348.885
348.964
349.057
349.151
349.236
349.306
349.359
349.394
349.411
349.409
349.39
349.351
349.292
349.213
349.117
349.01
348.904
348.815
348.756
348.729
348.699
348.537
347.537
343.516
343.057
347.103
348.336
348.563
348.615
348.664
348.749
348.862
348.982
349.092
349.186
349.259
349.311
349.346
349.362
349.362
349.344
349.307
349.249
349.167
349.061
348.934
348.796
348.666
348.567
348.514
348.471
348.27
347.08
343.069
342.622
346.493
348.06
348.343
348.374
348.451
348.59
348.75
348.898
349.022
349.119
349.191
349.241
349.272
349.288
349.288
349.274
349.241
349.188
349.109
349
348.859
348.688
348.502
348.338
348.243
348.209
347.948
346.436
342.619
342.686
345.859
348.267
348.018
347.939
348.092
348.324
348.542
348.718
348.852
348.95
349.019
349.066
349.096
349.111
349.113
349.101
349.073
349.025
348.952
348.845
348.696
348.497
348.248
347.979
347.79
347.84
348.089
345.75
342.668
336.148
354.303
348.182
346.654
346.532
346.905
347.301
347.617
347.858
348.038
348.168
348.261
348.325
348.366
348.388
348.39
348.374
348.337
348.276
348.183
348.049
347.861
347.604
347.262
346.827
346.405
346.468
347.942
354.034
336.113
425.554
355.397
346.984
343.032
342.498
342.706
343.002
343.293
343.563
343.79
343.97
344.107
344.206
344.272
344.306
344.308
344.277
344.214
344.117
343.983
343.803
343.575
343.299
342.999
342.686
342.449
342.935
346.809
355.116
424.919
449.439
364.744
348.66
339.7
336.66
335.742
335.524
335.569
335.727
335.915
336.096
336.255
336.378
336.459
336.497
336.493
336.446
336.356
336.225
336.063
335.881
335.696
335.552
335.544
335.833
336.87
340.081
349.235
365.495
450.828
331.349
361.656
353.06
347.73
344.55
343.263
342.899
342.895
343.018
343.177
343.332
343.464
343.565
343.631
343.661
343.655
343.613
343.536
343.427
343.292
343.142
343.003
342.923
343.005
343.494
344.933
348.241
353.609
362.147
331.286
336.391
343.262
349.442
349.108
347.776
346.796
346.259
345.988
345.853
345.791
345.767
345.764
345.769
345.775
345.775
345.77
345.76
345.748
345.741
345.751
345.793
345.892
346.087
346.445
347.085
348.15
349.505
349.762
343.403
336.386
335.406
341.258
345.911
347.674
347.792
347.459
347.106
346.829
346.626
346.48
346.38
346.313
346.271
346.246
346.233
346.231
346.239
346.264
346.311
346.391
346.517
346.703
346.96
347.3
347.707
348.062
347.911
346.052
341.292
335.369
335.749
341.548
345.269
346.809
347.282
347.299
347.153
346.968
346.793
346.645
346.527
346.44
346.379
346.341
346.322
346.322
346.342
346.383
346.453
346.557
346.7
346.882
347.094
347.312
347.476
347.448
346.928
345.307
341.505
335.675
336.089
342.235
345.392
346.53
346.94
347.046
347.008
346.904
346.777
346.651
346.541
346.452
346.386
346.344
346.323
346.325
346.349
346.398
346.475
346.579
346.709
346.858
347.006
347.122
347.157
347.025
346.567
345.361
342.141
335.997
336.478
342.829
345.586
346.452
346.753
346.852
346.85
346.79
346.7
346.6
346.505
346.423
346.36
346.318
346.298
346.3
346.326
346.375
346.448
346.543
346.652
346.765
346.863
346.921
346.908
346.779
346.432
345.511
342.713
336.376
336.918
343.32
345.752
346.433
346.649
346.719
346.72
346.679
346.611
346.531
346.45
346.378
346.321
346.281
346.262
346.265
346.29
346.336
346.401
346.482
346.57
346.655
346.722
346.754
346.733
346.632
346.376
345.654
343.198
336.819
337.336
343.729
345.9
346.442
346.593
346.632
346.623
346.585
346.528
346.461
346.392
346.329
346.277
346.242
346.225
346.227
346.249
346.29
346.347
346.414
346.486
346.553
346.604
346.628
346.616
346.549
346.366
345.793
343.614
337.25
337.702
344.068
346.034
346.473
346.57
346.58
346.557
346.514
346.46
346.399
346.338
346.282
346.236
346.204
346.189
346.191
346.21
346.245
346.294
346.351
346.411
346.467
346.512
346.54
346.544
346.51
346.387
345.929
343.964
337.63
338.01
344.342
346.153
346.515
346.571
346.555
346.515
346.465
346.408
346.35
346.293
346.242
346.201
346.172
346.157
346.158
346.175
346.205
346.247
346.297
346.35
346.402
346.448
346.484
346.506
346.502
346.427
346.054
344.25
337.949
338.258
344.556
346.253
346.56
346.585
346.547
346.493
346.433
346.373
346.314
346.259
346.211
346.172
346.146
346.132
346.132
346.147
346.174
346.211
346.256
346.306
346.357
346.407
346.453
346.492
346.514
346.475
346.162
344.475
338.205
338.445
344.713
346.332
346.601
346.604
346.55
346.484
346.417
346.352
346.291
346.237
346.19
346.153
346.127
346.114
346.114
346.127
346.151
346.186
346.228
346.277
346.329
346.384
346.439
346.493
346.534
346.521
346.249
344.642
338.397
338.57
344.819
346.388
346.634
346.622
346.558
346.484
346.411
346.342
346.28
346.225
346.178
346.142
346.117
346.105
346.104
346.116
346.139
346.172
346.213
346.262
346.316
346.375
346.438
346.501
346.554
346.558
346.311
344.753
338.527
338.634
344.873
346.419
346.654
346.636
346.567
346.489
346.412
346.342
346.278
346.223
346.176
346.141
346.116
346.103
346.103
346.114
346.136
346.169
346.211
346.26
346.316
346.377
346.443
346.511
346.571
346.582
346.346
344.812
338.593
338.636
344.878
346.425
346.661
346.644
346.575
346.497
346.42
346.349
346.285
346.23
346.183
346.147
346.123
346.11
346.11
346.121
346.144
346.177
346.219
346.269
346.325
346.387
346.454
346.522
346.582
346.592
346.355
344.818
338.596
338.578
344.833
346.407
346.654
346.644
346.581
346.507
346.434
346.364
346.301
346.246
346.199
346.163
346.137
346.125
346.125
346.137
346.161
346.195
346.239
346.289
346.345
346.406
346.47
346.533
346.586
346.588
346.337
344.773
338.538
338.459
344.737
346.363
346.635
346.64
346.588
346.522
346.454
346.388
346.327
346.271
346.223
346.186
346.16
346.147
346.147
346.161
346.187
346.224
346.269
346.321
346.376
346.434
346.492
346.547
346.587
346.572
346.294
344.675
338.416
338.277
344.588
346.295
346.606
346.634
346.599
346.545
346.485
346.423
346.362
346.306
346.256
346.216
346.189
346.175
346.176
346.192
346.221
346.262
346.311
346.365
346.42
346.475
346.525
346.567
346.589
346.548
346.227
344.524
338.233
338.034
344.381
346.205
346.573
346.634
346.619
346.58
346.528
346.47
346.409
346.35
346.297
346.254
346.224
346.209
346.211
346.23
346.263
346.308
346.363
346.422
346.48
346.532
346.574
346.601
346.599
346.522
346.139
344.315
337.986
337.729
344.113
346.095
346.543
346.646
346.657
346.633
346.589
346.531
346.467
346.402
346.344
346.296
346.263
346.248
346.25
346.271
346.31
346.362
346.425
346.491
346.555
346.609
346.646
346.657
346.627
346.503
346.036
344.046
337.678
337.367
343.78
345.971
346.525
346.68
346.721
346.71
346.669
346.607
346.535
346.462
346.395
346.342
346.305
346.288
346.291
346.315
346.359
346.419
346.493
346.572
346.647
346.709
346.746
346.744
346.685
346.504
345.923
343.714
337.311
336.952
343.375
345.833
346.527
346.749
346.818
346.816
346.769
346.694
346.608
346.522
346.446
346.386
346.346
346.327
346.33
346.357
346.405
346.475
346.561
346.656
346.751
346.831
346.878
346.872
346.785
346.535
345.805
343.317
336.894
336.514
342.89
345.678
346.56
346.865
346.961
346.952
346.883
346.785
346.677
346.576
346.49
346.425
346.381
346.361
346.365
346.392
346.444
346.52
346.618
346.734
346.856
346.967
347.043
347.05
346.941
346.608
345.682
342.848
336.463
336.134
342.305
345.5
346.654
347.063
347.161
347.111
346.995
346.857
346.723
346.607
346.514
346.447
346.404
346.384
346.386
346.412
346.463
346.541
346.648
346.783
346.938
347.097
347.232
347.291
347.188
346.755
345.551
342.293
336.101
335.806
341.64
345.397
346.947
347.412
347.413
347.251
347.052
346.865
346.708
346.585
346.494
346.432
346.395
346.377
346.378
346.399
346.442
346.513
346.618
346.763
346.947
347.165
347.397
347.586
347.595
347.116
345.515
341.683
335.799
335.485
341.381
346.06
347.822
347.92
347.564
347.191
346.897
346.682
346.529
346.425
346.357
346.315
346.291
346.28
346.279
346.289
346.315
346.363
346.443
346.568
346.751
347.007
347.349
347.772
348.163
348.071
346.265
341.505
335.525
336.495
343.419
349.612
349.252
347.887
346.879
346.319
346.032
345.889
345.823
345.798
345.795
345.801
345.808
345.811
345.808
345.8
345.789
345.783
345.793
345.832
345.925
346.111
346.458
347.092
348.174
349.585
349.936
343.645
336.586
331.476
361.87
353.217
347.846
344.628
343.31
342.925
342.912
343.031
343.19
343.346
343.481
343.585
343.653
343.685
343.681
343.641
343.566
343.457
343.32
343.168
343.023
342.932
342.997
343.467
344.892
348.212
353.645
362.334
331.583
449.93
364.917
348.768
339.765
336.696
335.762
335.534
335.573
335.73
335.918
336.101
336.262
336.387
336.469
336.508
336.505
336.46
336.371
336.24
336.077
335.893
335.707
335.56
335.546
335.821
336.833
340.013
349.154
365.449
451.112
444.182
361.176
345.872
337.287
334.555
333.882
333.828
333.934
334.077
334.209
334.316
334.4
334.462
334.505
334.527
334.53
334.512
334.473
334.413
334.33
334.22
334.082
333.922
333.781
333.77
334.327
336.881
345.251
360.347
442.665
333.067
360.166
351.96
346.215
342.599
341.211
341.028
341.312
341.708
342.081
342.388
342.625
342.797
342.909
342.966
342.969
342.918
342.811
342.641
342.403
342.087
341.694
341.257
340.9
340.974
342.222
345.71
351.407
359.654
333.157
336.69
343.83
349.731
349.072
347.146
345.878
345.529
345.7
346.038
346.372
346.647
346.852
346.994
347.084
347.128
347.129
347.087
346.996
346.849
346.633
346.339
345.969
345.578
345.33
345.584
346.77
348.675
349.406
343.686
336.676
334.575
340.848
345.953
348.185
348.32
347.939
347.767
347.851
348.06
348.291
348.49
348.639
348.742
348.806
348.836
348.835
348.803
348.734
348.621
348.455
348.229
347.957
347.696
347.554
347.673
348.035
347.942
345.81
340.798
334.577
334.624
340.533
344.89
347.411
348.37
348.575
348.621
348.711
348.861
349.03
349.183
349.304
349.39
349.443
349.468
349.465
349.434
349.371
349.272
349.132
348.952
348.75
348.564
348.442
348.38
348.189
347.285
344.846
340.555
334.681
334.843
341.158
345.224
347.483
348.459
348.828
348.984
349.099
349.225
349.357
349.48
349.582
349.657
349.705
349.727
349.722
349.691
349.632
349.543
349.423
349.279
349.123
348.977
348.851
348.701
348.361
347.436
345.247
341.231
334.926
335.04
341.863
345.893
347.855
348.669
349.021
349.197
349.317
349.427
349.535
349.636
349.722
349.787
349.83
349.849
349.844
349.814
349.76
349.682
349.582
349.466
349.344
349.226
349.108
348.948
348.629
347.862
345.957
341.967
335.137
335.208
342.461
346.459
348.203
348.891
349.195
349.356
349.467
349.562
349.651
349.734
349.806
349.862
349.899
349.915
349.91
349.884
349.837
349.77
349.688
349.596
349.501
349.406
349.305
349.165
348.894
348.248
346.545
342.575
335.304
335.365
342.944
346.862
348.455
349.068
349.336
349.48
349.579
349.661
349.736
349.804
349.864
349.91
349.942
349.956
349.951
349.929
349.889
349.835
349.769
349.696
349.621
349.545
349.46
349.337
349.1
348.523
346.957
343.056
335.454
335.511
343.327
347.136
348.619
349.185
349.435
349.57
349.662
349.735
349.799
349.856
349.906
349.945
349.971
349.983
349.979
349.961
349.928
349.884
349.831
349.774
349.713
349.649
349.573
349.458
349.235
348.697
347.233
343.429
335.59
335.638
343.622
347.319
348.716
349.254
349.497
349.631
349.72
349.787
349.845
349.894
349.936
349.969
349.992
350.002
349.999
349.984
349.958
349.922
349.88
349.832
349.781
349.723
349.649
349.534
349.313
348.797
347.412
343.714
335.709
335.744
343.842
347.438
348.771
349.29
349.532
349.668
349.757
349.823
349.876
349.921
349.958
349.987
350.006
350.015
350.014
350.001
349.98
349.95
349.914
349.873
349.827
349.771
349.696
349.577
349.353
348.85
347.525
343.924
335.809
335.826
343.997
347.513
348.799
349.306
349.548
349.687
349.777
349.844
349.895
349.938
349.972
349.998
350.015
350.024
350.023
350.012
349.994
349.969
349.937
349.9
349.855
349.799
349.721
349.596
349.369
348.874
347.593
344.072
335.885
335.88
344.095
347.554
348.81
349.309
349.552
349.693
349.786
349.853
349.904
349.945
349.978
350.003
350.019
350.027
350.026
350.018
350.001
349.978
349.949
349.913
349.869
349.812
349.73
349.602
349.371
348.882
347.629
344.164
335.935
335.906
344.139
347.57
348.811
349.306
349.549
349.692
349.786
349.853
349.905
349.946
349.978
350.002
350.018
350.026
350.025
350.017
350.001
349.979
349.95
349.915
349.871
349.812
349.729
349.598
349.366
348.879
347.642
344.205
335.958
335.901
344.134
347.563
348.803
349.298
349.541
349.684
349.778
349.846
349.898
349.939
349.971
349.996
350.012
350.02
350.019
350.011
349.995
349.972
349.943
349.907
349.862
349.803
349.718
349.587
349.355
348.869
347.632
344.197
335.952
335.868
344.078
347.534
348.788
349.286
349.529
349.67
349.764
349.831
349.884
349.926
349.959
349.984
350.001
350.009
350.008
349.999
349.982
349.957
349.926
349.889
349.843
349.783
349.7
349.57
349.339
348.85
347.601
344.141
335.918
335.805
343.97
347.48
348.762
349.268
349.51
349.649
349.741
349.808
349.862
349.905
349.941
349.968
349.986
349.995
349.993
349.982
349.963
349.935
349.901
349.86
349.813
349.753
349.671
349.544
349.315
348.821
347.544
344.032
335.856
335.716
343.804
347.393
348.722
349.239
349.48
349.616
349.706
349.774
349.83
349.877
349.916
349.946
349.967
349.976
349.974
349.961
349.938
349.905
349.866
349.821
349.769
349.708
349.627
349.504
349.277
348.774
347.456
343.867
335.767
335.602
343.576
347.263
348.654
349.189
349.431
349.566
349.657
349.727
349.788
349.84
349.885
349.92
349.943
349.954
349.951
349.935
349.907
349.868
349.821
349.768
349.71
349.645
349.563
349.442
349.216
348.699
347.322
343.638
335.654
335.469
343.274
347.07
348.544
349.107
349.356
349.493
349.587
349.664
349.732
349.794
349.846
349.888
349.916
349.928
349.924
349.905
349.87
349.822
349.765
349.701
349.632
349.559
349.472
349.348
349.117
348.576
347.12
343.335
335.52
335.319
342.886
346.784
348.367
348.976
349.243
349.391
349.494
349.582
349.662
349.736
349.799
349.848
349.881
349.896
349.891
349.868
349.826
349.768
349.697
349.618
349.534
349.446
349.347
349.211
348.962
348.378
346.82
342.942
335.368
335.157
342.395
346.37
348.1
348.784
349.09
349.257
349.375
349.477
349.574
349.662
349.738
349.797
349.835
349.852
349.848
349.82
349.772
349.702
349.616
349.517
349.412
349.305
349.187
349.028
348.739
348.081
346.384
342.441
335.203
334.983
341.786
345.79
347.735
348.547
348.905
349.09
349.221
349.34
349.457
349.564
349.654
349.722
349.766
349.785
349.78
349.75
349.695
349.615
349.511
349.39
349.26
349.129
348.992
348.808
348.463
347.677
345.775
341.813
335.021
334.776
341.063
345.103
347.345
348.324
348.705
348.875
349.005
349.142
349.283
349.412
349.517
349.594
349.643
349.665
349.66
349.629
349.569
349.479
349.358
349.211
349.05
348.894
348.749
348.571
348.194
347.239
345.045
341.053
334.793
334.538
340.41
344.74
347.255
348.228
348.454
348.518
348.625
348.787
348.964
349.123
349.246
349.332
349.386
349.41
349.406
349.375
349.312
349.214
349.074
348.895
348.692
348.502
348.368
348.28
348.045
347.089
344.621
340.345
334.523
334.453
340.687
345.778
348.021
348.183
347.83
347.681
347.78
348
348.238
348.44
348.591
348.693
348.755
348.784
348.782
348.749
348.681
348.569
348.404
348.182
347.915
347.659
347.518
347.625
347.948
347.785
345.584
340.553
334.379
336.543
343.633
349.539
348.92
347.033
345.796
345.469
345.653
345.997
346.334
346.61
346.815
346.956
347.044
347.086
347.086
347.043
346.952
346.806
346.592
346.301
345.939
345.561
345.328
345.592
346.766
348.614
349.238
343.42
336.436
332.872
359.911
351.793
346.097
342.518
341.158
340.993
341.288
341.688
342.062
342.368
342.603
342.773
342.883
342.938
342.94
342.888
342.78
342.611
342.374
342.06
341.672
341.245
340.906
341.002
342.274
345.761
351.398
359.468
332.775
443.589
361.001
345.761
337.218
334.511
333.854
333.808
333.918
334.062
334.193
334.299
334.381
334.441
334.483
334.504
334.506
334.487
334.447
334.388
334.306
334.197
334.061
333.906
333.774
333.779
334.367
336.967
345.375
360.47
442.408
443.388
362.079
346.91
337.473
333.47
331.72
330.93
330.579
330.445
330.404
330.403
330.417
330.435
330.45
330.459
330.459
330.452
330.441
330.428
330.423
330.437
330.501
330.675
331.087
331.969
333.854
338.039
347.667
362.998
445.028
330.203
359.03
352.094
346.496
342.074
339.448
338.119
337.554
337.395
337.428
337.537
337.661
337.771
337.85
337.891
337.892
337.852
337.776
337.674
337.564
337.479
337.487
337.711
338.367
339.809
342.549
347.057
352.667
359.572
330.085
334.613
342.039
348.681
348.603
346.499
344.351
342.882
342.089
341.761
341.699
341.764
341.872
341.979
342.058
342.1
342.101
342.06
341.984
341.888
341.799
341.767
341.882
342.283
343.164
344.713
346.909
349
348.991
342.162
334.612
332.022
338.411
343.888
346.783
347.207
346.467
345.568
344.914
344.547
344.387
344.347
344.363
344.396
344.426
344.443
344.447
344.436
344.414
344.393
344.397
344.471
344.683
345.113
345.827
346.762
347.496
347.011
344.019
338.46
332.033
331.49
337.244
341.801
344.95
346.469
346.747
346.478
346.109
345.813
345.619
345.507
345.448
345.419
345.407
345.406
345.412
345.427
345.453
345.499
345.581
345.723
345.955
346.291
346.689
346.959
346.648
345.064
341.848
337.243
331.455
331.39
337.204
341.277
344.17
345.833
346.471
346.551
346.413
346.229
346.07
345.952
345.871
345.819
345.791
345.781
345.789
345.814
345.859
345.929
346.032
346.174
346.358
346.561
346.706
346.608
345.928
344.206
341.261
337.156
331.324
331.424
337.516
341.443
344.095
345.578
346.222
346.423
346.413
346.323
346.215
346.118
346.042
345.989
345.957
345.945
345.953
345.981
346.029
346.099
346.192
346.305
346.426
346.523
346.525
346.298
345.609
344.073
341.378
337.432
331.345
331.523
337.923
341.842
344.303
345.547
346.09
346.301
346.344
346.309
346.243
346.173
346.111
346.064
346.034
346.023
346.03
346.056
346.1
346.16
346.235
346.315
346.386
346.418
346.359
346.121
345.533
344.238
341.745
337.821
331.439
331.663
338.345
342.285
344.57
345.602
346.041
346.223
346.279
346.271
346.231
346.181
346.133
346.095
346.07
346.06
346.066
346.088
346.125
346.174
346.23
346.284
346.322
346.322
346.249
346.039
345.562
344.483
342.174
338.237
331.576
331.814
338.745
342.702
344.815
345.683
346.036
346.182
346.233
346.234
346.209
346.173
346.136
346.105
346.084
346.076
346.081
346.099
346.129
346.167
346.208
346.244
346.265
346.253
346.185
346.013
345.629
344.724
342.589
338.64
331.73
331.958
339.101
343.062
345.019
345.765
346.051
346.166
346.205
346.206
346.187
346.159
346.13
346.105
346.088
346.081
346.085
346.099
346.123
346.152
346.183
346.209
346.221
346.208
346.152
346.016
345.703
344.931
342.956
339.003
331.879
332.083
339.396
343.352
345.181
345.838
346.076
346.164
346.192
346.189
346.172
346.148
346.123
346.102
346.087
346.081
346.084
346.095
346.114
346.137
346.162
346.182
346.192
346.183
346.14
346.032
345.774
345.097
343.254
339.305
332.009
332.183
339.622
343.567
345.304
345.899
346.103
346.172
346.188
346.181
346.163
346.14
346.118
346.099
346.086
346.08
346.082
346.091
346.107
346.126
346.147
346.165
346.175
346.171
346.14
346.055
345.834
345.222
343.476
339.539
332.112
332.253
339.778
343.708
345.387
345.945
346.126
346.182
346.191
346.18
346.16
346.138
346.116
346.098
346.086
346.081
346.082
346.09
346.104
346.121
346.14
346.157
346.169
346.169
346.147
346.076
345.879
345.308
343.623
339.7
332.187
332.292
339.861
343.781
345.432
345.972
346.143
346.192
346.197
346.183
346.163
346.14
346.119
346.101
346.089
346.084
346.085
346.092
346.105
346.122
346.14
346.158
346.171
346.174
346.157
346.093
345.908
345.355
343.7
339.785
332.228
332.297
339.867
343.788
345.44
345.98
346.151
346.199
346.204
346.191
346.169
346.146
346.125
346.107
346.095
346.089
346.09
346.098
346.111
346.128
346.147
346.165
346.179
346.183
346.167
346.104
345.919
345.366
343.709
339.794
332.235
332.269
339.797
343.729
345.41
345.969
346.15
346.205
346.213
346.201
346.181
346.157
346.135
346.117
346.104
346.098
346.099
346.108
346.122
346.141
346.161
346.18
346.194
346.197
346.177
346.108
345.913
345.341
343.653
339.725
332.207
332.208
339.653
343.6
345.342
345.939
346.142
346.21
346.225
346.217
346.197
346.173
346.149
346.129
346.115
346.109
346.111
346.12
346.137
346.158
346.181
346.203
346.217
346.217
346.19
346.108
345.89
345.278
343.526
339.582
332.148
332.119
339.438
343.398
345.233
345.892
346.13
346.218
346.243
346.238
346.218
346.192
346.165
346.142
346.127
346.12
346.122
346.134
346.154
346.18
346.208
346.233
346.248
346.245
346.209
346.108
345.853
345.176
343.325
339.368
332.059
332.003
339.153
343.118
345.083
345.833
346.12
346.233
346.27
346.268
346.246
346.214
346.182
346.155
346.137
346.129
346.132
346.147
346.172
346.204
346.239
346.271
346.291
346.286
346.24
346.112
345.806
345.035
343.05
339.086
331.945
331.867
338.807
342.768
344.891
345.765
346.119
346.263
346.31
346.307
346.277
346.237
346.197
346.163
346.141
346.131
346.136
346.155
346.185
346.226
346.272
346.315
346.344
346.344
346.288
346.13
345.755
344.854
342.71
338.746
331.814
331.724
338.416
342.364
344.659
345.699
346.139
346.317
346.368
346.353
346.308
346.253
346.202
346.16
346.133
346.122
346.127
346.15
346.187
346.238
346.299
346.36
346.408
346.422
346.365
346.174
345.712
344.641
342.323
338.367
331.678
331.595
338.008
341.937
344.411
345.661
346.204
346.407
346.443
346.399
346.326
346.25
346.183
346.133
346.102
346.089
346.095
346.121
346.165
346.227
346.305
346.391
346.472
346.52
346.483
346.269
345.706
344.424
341.923
337.978
331.562
331.506
337.618
341.561
344.226
345.712
346.35
346.539
346.518
346.416
346.3
346.197
346.117
346.06
346.027
346.014
346.021
346.047
346.095
346.165
346.26
346.377
346.507
346.619
346.646
346.452
345.797
344.283
341.586
337.617
331.49
331.485
337.33
341.422
344.325
345.985
346.608
346.672
346.518
346.321
346.153
346.028
345.944
345.89
345.861
345.85
345.857
345.881
345.924
345.993
346.094
346.238
346.426
346.641
346.81
346.751
346.118
344.434
341.497
337.372
331.494
331.608
337.4
341.976
345.125
346.631
346.885
346.594
346.206
345.895
345.691
345.575
345.514
345.485
345.474
345.472
345.478
345.491
345.515
345.557
345.635
345.774
346.004
346.344
346.759
347.067
346.814
345.291
342.108
337.492
331.653
332.172
338.599
344.089
346.97
347.365
346.594
345.669
344.994
344.611
344.442
344.399
344.416
344.451
344.483
344.502
344.505
344.493
344.469
344.444
344.442
344.509
344.712
345.136
345.852
346.811
347.6
347.199
344.283
338.744
332.265
334.785
342.264
348.903
348.782
346.639
344.46
342.967
342.155
341.814
341.745
341.807
341.915
342.022
342.104
342.147
342.149
342.108
342.032
341.934
341.84
341.801
341.904
342.289
343.154
344.7
346.922
349.087
349.197
342.471
334.892
330.424
359.34
352.298
346.648
342.189
339.539
338.19
337.612
337.444
337.472
337.58
337.704
337.814
337.894
337.936
337.938
337.898
337.823
337.72
337.607
337.518
337.515
337.723
338.355
339.769
342.49
347.014
352.704
359.808
330.516
444.12
362.31
347.07
337.586
333.554
331.787
330.987
330.629
330.49
330.448
330.446
330.46
330.478
330.493
330.503
330.504
330.498
330.486
330.474
330.467
330.479
330.537
330.701
331.094
331.947
333.793
337.93
347.532
362.894
445.388
438.592
359.161
344.999
336.625
333.499
332.292
331.81
331.637
331.599
331.611
331.636
331.661
331.682
331.695
331.7
331.694
331.679
331.654
331.622
331.582
331.541
331.511
331.526
331.675
332.111
333.236
336.226
344.427
358.415
437.261
332.092
357.671
350.747
345.52
341.733
339.7
338.801
338.51
338.506
338.616
338.755
338.885
338.989
339.059
339.091
339.085
339.04
338.957
338.84
338.694
338.535
338.399
338.366
338.608
339.437
341.38
345.082
350.277
357.23
332.203
336.041
342.916
348.663
348.342
346.428
344.633
343.511
342.999
342.876
342.948
343.091
343.24
343.365
343.45
343.49
343.484
343.43
343.331
343.192
343.025
342.86
342.756
342.834
343.288
344.35
346.098
348.008
348.396