/*--------------------------------*- C++ -*----------------------------------*\
| =========                 |                                                 |
| \\      /  F ield         | OpenFOAM: The Open Source CFD Toolbox           |
|  \\    /   O peration     | Version:  2312                                  |
|   \\  /    A nd           | Website:  www.openfoam.com                      |
|    \\/     M anipulation  |                                                 |
\*---------------------------------------------------------------------------*/
FoamFile
{
    version     2.0;
    format      ascii;
    arch        "LSB;label=32;scalar=64";
    class       volVectorField;
    location    "750";
    object      U;
}
// * * * * * * * * * * * * * * * * * * * * * * * * * * * * * * * * * * * * * //

dimensions      [0 1 -1 0 0 0 0];

internalField   nonuniform List<vector> 
27000
(
(-8.97369e-05 0.000132152 0.107091)
(-0.000243431 0.000247574 0.0762386)
(-0.000150729 0.000255274 0.0818262)
(-0.00012264 0.000228256 0.0835926)
(-8.82404e-05 0.000216392 0.0855764)
(-6.41156e-05 0.000210578 0.0871092)
(-4.39328e-05 0.000207815 0.0882432)
(-2.72928e-05 0.000206571 0.0891411)
(-1.4752e-05 0.000206572 0.0898841)
(-6.15392e-06 0.000207267 0.0904732)
(-8.8799e-07 0.000208207 0.0909251)
(1.8469e-06 0.000209117 0.0912627)
(2.75703e-06 0.000209852 0.0915052)
(2.46766e-06 0.000210416 0.0916658)
(1.54327e-06 0.000210679 0.0917495)
(5.00182e-07 0.000210616 0.0917572)
(-1.5093e-07 0.000210208 0.0916894)
(1.21185e-07 0.000209602 0.0915454)
(1.88824e-06 0.000208814 0.0913189)
(5.8531e-06 0.000207954 0.0909957)
(1.27356e-05 0.000207168 0.0905563)
(2.3389e-05 0.000206895 0.0899774)
(3.84365e-05 0.000207735 0.0892404)
(5.77898e-05 0.000210297 0.0883417)
(8.05566e-05 0.000214891 0.0871976)
(0.000106869 0.000223008 0.085642)
(0.000142095 0.000237281 0.0836177)
(0.000167903 0.000265023 0.0817881)
(0.000261087 0.000260615 0.0761243)
(9.7803e-05 0.0001391 0.106837)
(0.00030772 -0.000140997 0.0625073)
(0.000103861 -2.76505e-05 0.0832268)
(5.88049e-05 0.000188116 0.0912497)
(1.57696e-05 0.000242643 0.094181)
(6.72742e-06 0.000262446 0.095746)
(8.4084e-06 0.000271825 0.0968707)
(1.1929e-05 0.000278434 0.0976949)
(1.56333e-05 0.00028404 0.0983035)
(1.85141e-05 0.000288867 0.0987587)
(1.98527e-05 0.000292908 0.0990959)
(1.94837e-05 0.000296175 0.0993406)
(1.75013e-05 0.000298671 0.0995152)
(1.42391e-05 0.000300453 0.0996369)
(1.00736e-05 0.000301573 0.0997174)
(5.43535e-06 0.000302103 0.0997629)
(7.42261e-07 0.000302074 0.0997759)
(-3.59193e-06 0.000301518 0.099756)
(-7.1393e-06 0.000300396 0.0996999)
(-9.48339e-06 0.000298721 0.0996)
(-1.03052e-05 0.000296445 0.0994427)
(-9.32837e-06 0.000293607 0.0992082)
(-6.547e-06 0.000290328 0.0988709)
(-2.30724e-06 0.00028673 0.0984009)
(2.51409e-06 0.000282975 0.0977577)
(6.6178e-06 0.00027876 0.0968744)
(7.90081e-06 0.000271957 0.0956673)
(-2.71219e-06 0.000254195 0.0940075)
(-4.93112e-05 0.000200182 0.0909969)
(-0.000100942 -2.12938e-05 0.0829692)
(-0.000316858 -0.000147501 0.0624128)
(0.000109288 0.000128282 0.080505)
(0.000120122 0.000170132 0.0895942)
(0.000140891 0.000240225 0.0962426)
(0.000118288 0.000277292 0.0979617)
(9.42031e-05 0.000294772 0.0986857)
(7.68236e-05 0.000303168 0.0992112)
(6.40825e-05 0.000307652 0.0996539)
(5.45384e-05 0.000310713 0.100013)
(4.71228e-05 0.000313072 0.100294)
(4.07691e-05 0.000314994 0.100505)
(3.46748e-05 0.000316447 0.100659)
(2.84707e-05 0.000317475 0.100769)
(2.19466e-05 0.000318135 0.100845)
(1.51418e-05 0.000318491 0.100895)
(8.1739e-06 0.000318632 0.100926)
(1.22886e-06 0.000318579 0.100938)
(-5.50288e-06 0.000318372 0.100931)
(-1.18594e-05 0.000318 0.1009)
(-1.77713e-05 0.000317448 0.100839)
(-2.32775e-05 0.000316693 0.100736)
(-2.86906e-05 0.000315812 0.100577)
(-3.45755e-05 0.000314852 0.100345)
(-4.1832e-05 0.000313908 0.100026)
(-5.17129e-05 0.000312752 0.0996045)
(-6.5469e-05 0.000310415 0.0990804)
(-8.4601e-05 0.000303928 0.0984631)
(-0.00011138 0.000287072 0.0976602)
(-0.000138139 0.000247711 0.0959226)
(-0.000122219 0.000171829 0.089384)
(-0.000118748 0.000118816 0.0804524)
(0.000147938 5.22589e-05 0.0839882)
(0.000150452 0.000153231 0.0937645)
(0.000168839 0.000241555 0.0977441)
(0.000154502 0.000272424 0.0987778)
(0.00013477 0.000287122 0.0992087)
(0.000114327 0.000293834 0.0995379)
(9.57568e-05 0.000296753 0.0998522)
(7.99401e-05 0.000297992 0.100143)
(6.66576e-05 0.000298655 0.100392)
(5.53201e-05 0.000299012 0.100595)
(4.52947e-05 0.000299211 0.100751)
(3.60088e-05 0.00029925 0.100866)
(2.71075e-05 0.000299167 0.100948)
(1.83759e-05 0.000299053 0.101002)
(9.72896e-06 0.000298937 0.101032)
(1.14454e-06 0.000298908 0.101041)
(-7.3793e-06 0.000298961 0.101027)
(-1.58929e-05 0.000299128 0.100986)
(-2.45313e-05 0.000299388 0.100909)
(-3.36208e-05 0.00029979 0.100789)
(-4.3632e-05 0.000300334 0.100615)
(-5.52213e-05 0.00030112 0.100379)
(-6.91832e-05 0.000301998 0.100079)
(-8.61596e-05 0.000302512 0.099724)
(-0.000106373 0.000301278 0.0993383)
(-0.000128979 0.000295532 0.0989463)
(-0.000151357 0.000280244 0.0984846)
(-0.000168914 0.000246067 0.0974849)
(-0.00015516 0.000150972 0.0936372)
(-0.000156254 4.13158e-05 0.0839954)
(0.000141609 8.14545e-05 0.0866058)
(0.000170165 0.000160128 0.0959187)
(0.000190095 0.000231226 0.0986558)
(0.00017691 0.000259053 0.099205)
(0.000158848 0.000272087 0.0994286)
(0.000138629 0.000277805 0.0996253)
(0.000118491 0.000279622 0.0998441)
(9.98566e-05 0.000279562 0.100075)
(8.32306e-05 0.000278698 0.100296)
(6.85186e-05 0.000277624 0.10049)
(5.53671e-05 0.000276555 0.10065)
(4.33742e-05 0.00027557 0.100775)
(3.21529e-05 0.000274752 0.100866)
(2.13933e-05 0.00027413 0.100926)
(1.08786e-05 0.000273794 0.100959)
(4.53443e-07 0.00027377 0.100964)
(-1.0046e-05 0.000274112 0.100941)
(-2.08037e-05 0.000274828 0.100885)
(-3.20998e-05 0.000275947 0.100792)
(-4.43047e-05 0.000277466 0.100654)
(-5.7897e-05 0.000279431 0.100469)
(-7.33615e-05 0.00028171 0.100236)
(-9.10524e-05 0.000284043 0.0999671)
(-0.000111092 0.000285596 0.0996831)
(-0.000132913 0.000284924 0.0994166)
(-0.000154969 0.000279468 0.0991925)
(-0.000174968 0.000265229 0.0989782)
(-0.000190461 0.000233826 0.0984919)
(-0.000173715 0.000156689 0.0958787)
(-0.000146919 7.20324e-05 0.086658)
(0.000144356 8.62044e-05 0.0884763)
(0.000184735 0.000163996 0.0972125)
(0.000205573 0.000220118 0.0992423)
(0.000193164 0.000241763 0.099545)
(0.000175962 0.000252553 0.099627)
(0.000156297 0.000257315 0.0997177)
(0.000135924 0.000258493 0.0998513)
(0.00011617 0.000257622 0.100019)
(9.77035e-05 0.000255752 0.100199)
(8.0724e-05 0.000253544 0.100373)
(6.51611e-05 0.000251389 0.100526)
(5.07895e-05 0.000249492 0.100651)
(3.73029e-05 0.00024796 0.100746)
(2.44047e-05 0.000246878 0.10081)
(1.18323e-05 0.000246314 0.100842)
(-6.68784e-07 0.00024632 0.100845)
(-1.33237e-05 0.000246941 0.100814)
(-2.64025e-05 0.000248201 0.100749)
(-4.02091e-05 0.00025011 0.100646)
(-5.50894e-05 0.000252659 0.100504)
(-7.13823e-05 0.000255748 0.100324)
(-8.93192e-05 0.000259161 0.100115)
(-0.000108964 0.000262333 0.0998962)
(-0.000130031 0.000264376 0.0996932)
(-0.00015178 0.000263873 0.0995372)
(-0.000172791 0.000258926 0.099448)
(-0.000191263 0.000246651 0.0994002)
(-0.000205015 0.000221815 0.0991701)
(-0.000186449 0.000160815 0.0972429)
(-0.000146958 7.89207e-05 0.0885537)
(0.000148329 9.0324e-05 0.0898574)
(0.000197919 0.000160738 0.098025)
(0.000218337 0.000205477 0.0996257)
(0.000206288 0.000222238 0.0998087)
(0.000189449 0.000230692 0.0998127)
(0.00017023 0.000234433 0.09983)
(0.000150034 0.000235064 0.0998949)
(0.000129898 0.000233697 0.100003)
(0.000110439 0.000231176 0.100139)
(9.19526e-05 0.000228191 0.100282)
(7.4533e-05 0.000225214 0.100418)
(5.80977e-05 0.000222565 0.100535)
(4.24659e-05 0.000220429 0.100626)
(2.73968e-05 0.000218943 0.100688)
(1.26289e-05 0.000218184 0.10072)
(-2.07921e-06 0.00021823 0.100719)
(-1.69927e-05 0.000219115 0.100686)
(-3.23728e-05 0.000220866 0.100617)
(-4.84865e-05 0.00022346 0.100515)
(-6.55879e-05 0.000226818 0.10038)
(-8.38513e-05 0.000230746 0.10022)
(-0.000103332 0.000234849 0.10005)
(-0.000123864 0.000238486 0.0998886)
(-0.000145084 0.000240725 0.0997626)
(-0.000166291 0.000240432 0.0996958)
(-0.000186384 0.00023626 0.0996985)
(-0.000203965 0.000226375 0.0997396)
(-0.000216862 0.000206997 0.0996253)
(-0.000197957 0.000158612 0.0981009)
(-0.000148993 8.57064e-05 0.0899463)
(0.000153591 9.09064e-05 0.090879)
(0.000210277 0.000153539 0.098546)
(0.000229706 0.00018856 0.0998687)
(0.000217575 0.000201236 0.0999963)
(0.000200791 0.000207562 0.0999659)
(0.000181828 0.00021023 0.0999415)
(0.000161832 0.000210326 0.0999585)
(0.000141587 0.000208577 0.100019)
(0.000121567 0.000205654 0.100112)
(0.000102058 0.000202169 0.100223)
(8.31994e-05 0.000198642 0.100335)
(6.50159e-05 0.000195454 0.100437)
(4.74135e-05 0.000192872 0.100519)
(3.02329e-05 0.000191071 0.100577)
(1.32853e-05 0.000190177 0.100605)
(-3.65212e-06 0.000190265 0.100603)
(-2.07908e-05 0.000191379 0.100569)
(-3.83418e-05 0.000193523 0.100504)
(-5.64984e-05 0.000196633 0.10041)
(-7.53964e-05 0.000200559 0.100292)
(-9.50927e-05 0.000205007 0.100161)
(-0.000115501 0.000209497 0.100033)
(-0.000136419 0.000213353 0.0999264)
(-0.000157485 0.000215738 0.0998628)
(-0.000178168 0.000215798 0.0998576)
(-0.000197683 0.000212637 0.099911)
(-0.000214908 0.000205116 0.0999872)
(-0.00022756 0.000190455 0.0999171)
(-0.000209292 0.000152938 0.098646)
(-0.000153054 8.87375e-05 0.0909692)
(0.00016015 8.773e-05 0.0916552)
(0.000222038 0.000142585 0.0988845)
(0.000240227 0.000169811 0.100014)
(0.000227727 0.000179103 0.100117)
(0.00021074 0.000183535 0.100077)
(0.000191811 0.000185144 0.100034)
(0.000171912 0.000184675 0.100023)
(0.000151604 0.000182611 0.10005)
(0.000131214 0.000179445 0.100109)
(0.000110953 0.000175702 0.100189)
(9.09621e-05 0.000171881 0.100277)
(7.12926e-05 0.000168391 0.100361)
(5.19321e-05 0.000165544 0.100431)
(3.28031e-05 0.000163562 0.10048)
(1.37805e-05 0.000162593 0.100505)
(-5.26742e-06 0.000162727 0.100502)
(-2.44861e-05 0.00016401 0.100471)
(-4.4005e-05 0.000166411 0.100413)
(-6.39165e-05 0.000169836 0.100332)
(-8.42632e-05 0.000174068 0.100237)
(-0.000105008 0.000178758 0.100137)
(-0.000126031 0.000183401 0.100048)
(-0.000147125 0.000187344 0.0999856)
(-0.000168029 0.000189911 0.0999658)
(-0.000188399 0.000190456 0.099996)
(-0.000207668 0.00018845 0.10007)
(-0.000224941 0.00018312 0.100151)
(-0.000237813 0.000172457 0.100092)
(-0.000220531 0.000143529 0.0989923)
(-0.000158931 8.75585e-05 0.091737)
(0.000167102 8.10368e-05 0.0922529)
(0.000232989 0.000128201 0.0991066)
(0.000249962 0.00014923 0.100095)
(0.00023696 0.000155807 0.100186)
(0.000219619 0.000158636 0.100148)
(0.000200564 0.00015928 0.100101)
(0.000180636 0.000158286 0.100076)
(0.000160219 0.000155968 0.100082)
(0.000139512 0.000152693 0.100116)
(0.000118647 0.00014889 0.100171)
(9.77152e-05 0.000145008 0.100237)
(7.67892e-05 0.000141444 0.100303)
(5.58918e-05 0.000138528 0.10036)
(3.50144e-05 0.0001365 0.100401)
(1.41222e-05 0.000135527 0.100421)
(-6.84028e-06 0.00013571 0.100418)
(-2.79226e-05 0.000137078 0.100391)
(-4.91602e-05 0.000139594 0.100343)
(-7.05594e-05 0.000143122 0.100279)
(-9.20849e-05 0.000147422 0.100205)
(-0.000113648 0.000152122 0.100134)
(-0.000135128 0.000156731 0.100076)
(-0.000156372 0.000160694 0.100046)
(-0.000177223 0.000163445 0.100053)
(-0.000197472 0.000164552 0.100099)
(-0.000216763 0.000163661 0.100175)
(-0.000234298 0.000160251 0.100246)
(-0.000247592 0.000152766 0.100187)
(-0.000231345 0.000130567 0.099213)
(-0.000165659 8.23775e-05 0.0923246)
(0.00017373 7.13875e-05 0.0927041)
(0.000242777 0.000110827 0.0992508)
(0.000258706 0.000126831 0.100132)
(0.000245199 0.000131279 0.100216)
(0.000227488 0.00013281 0.100185)
(0.00020823 0.000132666 0.100141)
(0.00018818 0.00013124 0.100112)
(0.000167594 0.00012876 0.100107)
(0.000146574 0.000125501 0.100125)
(0.000125172 0.000121809 0.100162)
(0.000103443 0.000118064 0.10021)
(8.14407e-05 0.000114634 0.10026)
(5.92236e-05 0.000111824 0.100304)
(3.68355e-05 0.000109883 0.100337)
(1.43128e-05 0.000108973 0.100353)
(-8.31122e-06 0.000109196 0.10035)
(-3.09999e-05 0.000110577 0.100329)
(-5.37026e-05 0.000113063 0.100291)
(-7.63487e-05 0.00011651 0.100242)
(-9.88442e-05 0.000120669 0.100188)
(-0.000121088 0.000125188 0.10014)
(-0.000142965 0.000129632 0.100106)
(-0.000164391 0.000133527 0.100096)
(-0.000185292 0.000136447 0.100117)
(-0.000205574 0.000138063 0.100167)
(-0.000224999 0.00013814 0.100235)
(-0.000242857 0.000136298 0.100293)
(-0.000256591 0.000131273 0.10023)
(-0.000241244 0.000114386 0.099352)
(-0.000172321 7.38206e-05 0.0927682)
(0.000179551 5.93826e-05 0.093035)
(0.000251101 9.09303e-05 0.099342)
(0.000266218 0.00010273 0.100144)
(0.000252285 0.000105531 0.100223)
(0.000234246 0.000106064 0.100198)
(0.00021478 0.000105321 0.10016)
(0.000194568 0.000103598 0.100132)
(0.00017378 0.000101073 0.100122)
(0.000152445 9.79557e-05 0.100131)
(0.00013056 9.45237e-05 0.100155)
(0.000108139 9.10889e-05 0.10019)
(8.52302e-05 8.796e-05 0.100227)
(6.1905e-05 8.54149e-05 0.100261)
(3.82514e-05 8.3668e-05 0.100287)
(1.43663e-05 8.288e-05 0.100299)
(-9.64398e-06 8.31359e-05 0.100297)
(-3.36673e-05 8.44594e-05 0.100281)
(-5.75791e-05 8.67929e-05 0.100253)
(-8.12508e-05 8.99987e-05 0.100216)
(-0.000104554 9.38485e-05 0.100179)
(-0.00012737 9.80334e-05 0.100147)
(-0.000149618 0.00010219 0.100129)
(-0.000171253 0.000105937 0.100131)
(-0.000192271 0.000108943 0.100157)
(-0.000212651 0.000110958 0.100204)
(-0.000232237 0.000111802 0.100263)
(-0.00025038 0.000111166 0.100307)
(-0.000264484 0.000108017 0.100242)
(-0.000249822 9.54623e-05 0.0994371)
(-0.000178307 6.25963e-05 0.0930932)
(0.000184261 4.55896e-05 0.093266)
(0.000257724 6.90191e-05 0.0993969)
(0.000272271 7.71627e-05 0.100142)
(0.000258031 7.86579e-05 0.100217)
(0.000239742 7.84536e-05 0.100196)
(0.000220099 7.72975e-05 0.100164)
(0.000199729 7.54264e-05 0.100139)
(0.000178738 7.29821e-05 0.100128)
(0.000157107 7.0134e-05 0.100131)
(0.000134796 6.70948e-05 0.100148)
(0.000111796 6.41102e-05 0.100173)
(8.8145e-05 6.14255e-05 0.100202)
(6.39267e-05 5.92631e-05 0.100228)
(3.92609e-05 5.78042e-05 0.100248)
(1.42925e-05 5.71784e-05 0.100258)
(-1.08177e-05 5.74612e-05 0.100257)
(-3.58947e-05 5.86671e-05 0.100245)
(-6.07637e-05 6.07482e-05 0.100224)
(-8.52502e-05 6.35852e-05 0.100197)
(-0.000109201 6.69916e-05 0.100171)
(-0.000132498 7.07181e-05 0.100151)
(-0.000155073 7.44777e-05 0.100143)
(-0.000176919 7.79801e-05 0.100151)
(-0.000198072 8.09638e-05 0.100177)
(-0.000218557 8.32352e-05 0.10022)
(-0.000238276 8.46314e-05 0.10027)
(-0.000256625 8.48955e-05 0.100304)
(-0.000270979 8.3195e-05 0.100238)
(-0.000256778 7.4338e-05 0.0994866)
(-0.000183236 4.93683e-05 0.09332)
(0.000187661 3.05246e-05 0.0934117)
(0.000262475 4.56303e-05 0.0994264)
(0.000276691 5.04475e-05 0.100134)
(0.00026226 5.08744e-05 0.100205)
(0.000243813 5.01199e-05 0.100188)
(0.000224044 4.8709e-05 0.10016)
(0.000203541 4.68218e-05 0.100137)
(0.000182374 4.45783e-05 0.100126)
(0.000160494 4.21101e-05 0.100127)
(0.000137838 3.95775e-05 0.10014)
(0.000114383 3.71558e-05 0.100159)
(9.01654e-05 3.50223e-05 0.100182)
(6.52782e-05 3.33361e-05 0.100203)
(3.98628e-05 3.22301e-05 0.10022)
(1.40972e-05 3.17988e-05 0.100228)
(-1.18163e-05 3.2099e-05 0.100228)
(-3.76653e-05 3.31422e-05 0.100218)
(-6.32335e-05 3.48924e-05 0.100202)
(-8.83209e-05 3.72649e-05 0.100182)
(-0.000112758 4.01222e-05 0.100163)
(-0.000136424 4.32882e-05 0.10015)
(-0.000159264 4.65563e-05 0.100147)
(-0.000181288 4.97148e-05 0.100158)
(-0.000202556 5.25697e-05 0.100183)
(-0.000223122 5.49569e-05 0.100222)
(-0.000242924 5.67314e-05 0.100265)
(-0.000261383 5.76679e-05 0.100294)
(-0.00027587 5.71356e-05 0.100228)
(-0.0002619 5.15991e-05 0.0995121)
(-0.000186886 3.47427e-05 0.0934629)
(0.000189621 1.46698e-05 0.0934811)
(0.000265229 2.12988e-05 0.0994372)
(0.000279341 2.29687e-05 0.100126)
(0.000264838 2.24638e-05 0.100195)
(0.000246317 2.12788e-05 0.100179)
(0.000226476 1.97183e-05 0.100152)
(0.000205881 1.79143e-05 0.10013)
(0.000184584 1.59627e-05 0.100119)
(0.000162521 1.39631e-05 0.10012)
(0.000139621 1.20216e-05 0.10013)
(0.000115856 1.02453e-05 0.100147)
(9.12635e-05 8.73821e-06 0.100167)
(6.59432e-05 7.59169e-06 0.100186)
(4.00513e-05 6.88181e-06 0.100201)
(1.37854e-05 6.66491e-06 0.100208)
(-1.26306e-05 6.97453e-06 0.100208)
(-3.89586e-05 7.82078e-06 0.1002)
(-6.49644e-05 9.18581e-06 0.100186)
(-9.0431e-05 1.10225e-05 0.100169)
(-0.000115179 1.32557e-05 0.100153)
(-0.000139087 1.57825e-05 0.100143)
(-0.000162104 1.84812e-05 0.100143)
(-0.000184248 2.12168e-05 0.100155)
(-0.000205591 2.38523e-05 0.100179)
(-0.000226199 2.62545e-05 0.100216)
(-0.000246025 2.82876e-05 0.100256)
(-0.000264511 2.97628e-05 0.100283)
(-0.00027901 3.02384e-05 0.100218)
(-0.000265052 2.78366e-05 0.0995208)
(-0.000189104 1.92703e-05 0.0935312)
(0.000190061 -1.51491e-06 0.0934789)
(0.000265905 -3.43917e-06 0.0994326)
(0.000280133 -4.8617e-06 0.10012)
(0.000265671 -6.24746e-06 0.100188)
(0.000247159 -7.81653e-06 0.100171)
(0.000227297 -9.47347e-06 0.100143)
(0.000206657 -1.1143e-05 0.100121)
(0.000185284 -1.27495e-05 0.100109)
(0.000163118 -1.42267e-05 0.10011)
(0.000140089 -1.55263e-05 0.10012)
(0.000116173 -1.6608e-05 0.100137)
(9.14099e-05 -1.74469e-05 0.100157)
(6.5905e-05 -1.80196e-05 0.100176)
(3.98204e-05 -1.83113e-05 0.100191)
(1.33591e-05 -1.83062e-05 0.100198)
(-1.32475e-05 -1.79937e-05 0.100198)
(-3.97575e-05 -1.7366e-05 0.100189)
(-6.59298e-05 -1.64203e-05 0.100175)
(-9.15436e-05 -1.51617e-05 0.100158)
(-0.000116418 -1.36027e-05 0.100142)
(-0.000140427 -1.17654e-05 0.100132)
(-0.00016352 -9.68919e-06 0.100131)
(-0.000185715 -7.42899e-06 0.100143)
(-0.000207081 -5.06589e-06 0.100168)
(-0.000227687 -2.70169e-06 0.100205)
(-0.000247486 -4.61698e-07 0.100246)
(-0.000265917 1.50166e-06 0.100274)
(-0.000280319 2.93979e-06 0.100211)
(-0.000266158 3.62334e-06 0.0995157)
(-0.000189815 3.45359e-06 0.0935291)
(0.000188962 -1.7568e-05 0.0934051)
(0.000264471 -2.80423e-05 0.0994128)
(0.000279034 -3.26164e-05 0.100116)
(0.000264722 -3.492e-05 0.100184)
(0.000246295 -3.68895e-05 0.100164)
(0.000226467 -3.8654e-05 0.100133)
(0.000205822 -4.01862e-05 0.100109)
(0.000184433 -4.14365e-05 0.100097)
(0.000162246 -4.23795e-05 0.100097)
(0.000139208 -4.30201e-05 0.100109)
(0.000115305 -4.33969e-05 0.100129)
(9.05835e-05 -4.3557e-05 0.100152)
(6.51506e-05 -4.35539e-05 0.100173)
(3.91648e-05 -4.3426e-05 0.10019)
(1.28232e-05 -4.3203e-05 0.100198)
(-1.36564e-05 -4.28931e-05 0.100197)
(-4.00409e-05 -4.24924e-05 0.100187)
(-6.61027e-05 -4.19784e-05 0.10017)
(-9.16288e-05 -4.13137e-05 0.100149)
(-0.000116438 -4.04476e-05 0.10013)
(-0.000140406 -3.93249e-05 0.100116)
(-0.000163472 -3.78926e-05 0.100113)
(-0.000185646 -3.61293e-05 0.100124)
(-0.000206989 -3.40497e-05 0.10015)
(-0.000227552 -3.17236e-05 0.10019)
(-0.000247275 -2.92597e-05 0.100235)
(-0.000265576 -2.67723e-05 0.100267)
(-0.000279776 -2.43176e-05 0.100206)
(-0.000265205 -2.04609e-05 0.0994967)
(-0.000189019 -1.22106e-05 0.0934567)
(0.000186363 -3.30101e-05 0.0932555)
(0.000260955 -5.1962e-05 0.099375)
(0.000276062 -5.98714e-05 0.100112)
(0.00026201 -6.32154e-05 0.100181)
(0.000243746 -6.56784e-05 0.100157)
(0.000223997 -6.76139e-05 0.100121)
(0.000203392 -6.90549e-05 0.100093)
(0.000182031 -6.99827e-05 0.10008)
(0.000159901 -7.04122e-05 0.100082)
(0.000136969 -7.0418e-05 0.100099)
(0.000113241 -7.01113e-05 0.100124)
(8.87726e-05 -6.96224e-05 0.100153)
(6.36716e-05 -6.90675e-05 0.10018)
(3.80841e-05 -6.85456e-05 0.1002)
(1.21822e-05 -6.81168e-05 0.10021)
(-1.38414e-05 -6.78164e-05 0.100208)
(-3.97895e-05 -6.76364e-05 0.100194)
(-6.54581e-05 -6.75421e-05 0.100172)
(-9.06555e-05 -6.74579e-05 0.100144)
(-0.000115216 -6.72746e-05 0.100117)
(-0.000139005 -6.68569e-05 0.100096)
(-0.000161953 -6.60668e-05 0.100087)
(-0.000184051 -6.47882e-05 0.100095)
(-0.00020533 -6.29685e-05 0.100123)
(-0.000225821 -6.06299e-05 0.100167)
(-0.000245422 -5.78601e-05 0.10022)
(-0.00026352 -5.47318e-05 0.10026)
(-0.000277414 -5.10972e-05 0.100201)
(-0.000262227 -4.38423e-05 0.0994603)
(-0.000186761 -2.72185e-05 0.0933092)
(0.000182372 -4.73418e-05 0.093021)
(0.00025543 -7.46362e-05 0.0993127)
(0.000271296 -8.62229e-05 0.100104)
(0.000257602 -9.08274e-05 0.100175)
(0.000239579 -9.39493e-05 0.100144)
(0.000219956 -9.61745e-05 0.100101)
(0.00019941 -9.76111e-05 0.100069)
(0.000178116 -9.82777e-05 0.100057)
(0.000156101 -9.82492e-05 0.100064)
(0.000133375 -9.76728e-05 0.100089)
(0.000109975 -9.67452e-05 0.100124)
(8.59721e-05 -9.56677e-05 0.100162)
(6.14658e-05 -9.46246e-05 0.100196)
(3.65792e-05 -9.37516e-05 0.100222)
(1.14469e-05 -9.31489e-05 0.100234)
(-1.37895e-05 -9.2855e-05 0.100231)
(-3.89772e-05 -9.28786e-05 0.100214)
(-6.3967e-05 -9.31646e-05 0.100183)
(-8.85985e-05 -9.36129e-05 0.100145)
(-0.000112721 -9.40678e-05 0.100105)
(-0.00013621 -9.43186e-05 0.100072)
(-0.000158969 -9.414e-05 0.100053)
(-0.000180955 -9.33171e-05 0.100055)
(-0.000202162 -9.17077e-05 0.100082)
(-0.000222565 -8.92734e-05 0.100131)
(-0.000242012 -8.606e-05 0.100194)
(-0.000259832 -8.20901e-05 0.100245)
(-0.00027332 -7.69973e-05 0.100189)
(-0.000257304 -6.5946e-05 0.0993994)
(-0.000183159 -4.10473e-05 0.0930774)
(0.000177164 -6.00092e-05 0.0926873)
(0.000248037 -9.54979e-05 0.0992152)
(0.000264859 -0.000111307 0.100082)
(0.000251625 -0.000117521 0.100156)
(0.000233902 -0.000121533 0.100116)
(0.000214425 -0.000124208 0.100066)
(0.000193946 -0.000125744 0.100033)
(0.000172722 -0.000126228 0.100026)
(0.00015086 -0.000125815 0.100043)
(0.00012843 -0.00012474 0.100081)
(0.000105508 -0.000123286 0.100129)
(8.21796e-05 -0.000121725 0.100181)
(5.85353e-05 -0.000120284 0.100226)
(3.46572e-05 -0.000119139 0.100259)
(1.06275e-05 -0.000118394 0.100274)
(-1.34782e-05 -0.000118115 0.10027)
(-3.75857e-05 -0.000118298 0.100247)
(-6.15953e-05 -0.000118897 0.100207)
(-8.5414e-05 -0.000119796 0.100155)
(-0.000108921 -0.000120799 0.100099)
(-0.000131988 -0.000121654 0.100048)
(-0.000154507 -0.000122034 0.100013)
(-0.000176379 -0.00012163 0.100003)
(-0.000197534 -0.000120183 0.100024)
(-0.000217875 -0.000117558 0.100076)
(-0.000237156 -0.000113737 0.100149)
(-0.000254645 -0.000108645 0.100213)
(-0.000267636 -0.000101693 0.100161)
(-0.000250596 -8.61969e-05 0.0993023)
(-0.000178403 -5.3106e-05 0.0927469)
(0.000171038 -7.04025e-05 0.0922339)
(0.000238975 -0.00011398 0.0990657)
(0.000256954 -0.000134869 0.100035)
(0.00024422 -0.000143163 0.100113)
(0.000226835 -0.00014836 0.100066)
(0.000207486 -0.00015164 0.100012)
(0.000187032 -0.000153372 0.0999826)
(0.000165856 -0.00015375 0.0999865)
(0.00014417 -0.000153032 0.100021)
(0.000122123 -0.00015157 0.100078)
(9.98328e-05 -0.000149724 0.100146)
(7.74028e-05 -0.000147822 0.100214)
(5.48917e-05 -0.000146118 0.100272)
(3.23371e-05 -0.000144794 0.100313)
(9.74086e-06 -0.000143966 0.100332)
(-1.29009e-05 -0.000143691 0.100328)
(-3.55857e-05 -0.000143982 0.100299)
(-5.83219e-05 -0.000144795 0.100248)
(-8.1061e-05 -0.000146012 0.10018)
(-0.000103745 -0.000147444 0.100103)
(-0.000126271 -0.000148785 0.100029)
(-0.000148498 -0.00014966 0.0999691)
(-0.00017028 -0.000149636 0.0999377)
(-0.00019145 -0.000148325 0.0999444)
(-0.000211806 -0.000145451 0.0999921)
(-0.000230971 -0.000140865 0.100072)
(-0.000248124 -0.000134342 0.10015)
(-0.000260579 -0.000124971 0.100102)
(-0.000242328 -0.000104062 0.0991508)
(-0.00017284 -6.27412e-05 0.0922969)
(0.000164457 -7.78699e-05 0.0916345)
(0.000228547 -0.000129568 0.0988393)
(0.000247793 -0.000156763 0.099946)
(0.000235555 -0.000167729 0.100033)
(0.000218454 -0.0001744 0.0999818)
(0.000199154 -0.00017843 0.0999319)
(0.00017863 -0.000180419 0.099917)
(0.000157458 -0.000180741 0.0999432)
(0.000135977 -0.000179817 0.100004)
(0.00011442 -0.000178105 0.100087)
(9.29563e-05 -0.000176047 0.100179)
(7.16685e-05 -0.000173988 0.100265)
(5.05815e-05 -0.000172186 0.100337)
(2.96507e-05 -0.000170805 0.100387)
(8.80651e-06 -0.000169953 0.10041)
(-1.20434e-05 -0.000169681 0.100405)
(-3.30026e-05 -0.00017001 0.100371)
(-5.41354e-05 -0.000170907 0.10031)
(-7.55142e-05 -0.000172283 0.100225)
(-9.71365e-05 -0.000173955 0.100126)
(-0.000118942 -0.000175634 0.100022)
(-0.000140804 -0.000176895 0.09993)
(-0.000162511 -0.000177219 0.099866)
(-0.000183806 -0.000176055 0.0998452)
(-0.000204326 -0.000172937 0.0998761)
(-0.000223517 -0.000167483 0.0999526)
(-0.000240411 -0.000159234 0.100039)
(-0.000252391 -0.000146776 0.0999923)
(-0.000232852 -0.000119073 0.0989179)
(-0.000167003 -6.92741e-05 0.0917017)
(0.000158178 -8.17619e-05 0.0908569)
(0.00021711 -0.00014182 0.0984968)
(0.000237607 -0.000176946 0.0997909)
(0.00022569 -0.000191275 0.0999)
(0.000208711 -0.000199681 0.0998577)
(0.000189281 -0.000204527 0.0998271)
(0.000168563 -0.000206773 0.0998423)
(0.000147361 -0.000207077 0.0999047)
(0.000126172 -0.000206052 0.100002)
(0.000105301 -0.000204279 0.100117)
(8.49151e-05 -0.000202224 0.100234)
(6.50654e-05 -0.000200237 0.10034)
(4.56914e-05 -0.000198519 0.100424)
(2.66741e-05 -0.000197222 0.100481)
(7.85226e-06 -0.000196408 0.100509)
(-1.09424e-05 -0.000196141 0.100504)
(-2.98734e-05 -0.000196429 0.100466)
(-4.91199e-05 -0.000197271 0.100397)
(-6.8812e-05 -0.000198603 0.100298)
(-8.906e-05 -0.000200295 0.100176)
(-0.000109891 -0.000202094 0.100041)
(-0.000131207 -0.00020359 0.0999092)
(-0.000152796 -0.000204205 0.0998)
(-0.000174304 -0.000203242 0.0997348)
(-0.0001952 -0.000199964 0.0997291)
(-0.000214671 -0.000193677 0.0997839)
(-0.000231559 -0.000183449 0.0998648)
(-0.000243282 -0.000167181 0.0998057)
(-0.000222546 -0.000130856 0.0985611)
(-0.000161757 -7.20968e-05 0.090926)
(0.000153155 -8.18433e-05 0.0898349)
(0.000204906 -0.000150362 0.0979714)
(0.000226352 -0.000195426 0.0995373)
(0.000214396 -0.000213804 0.0996997)
(0.000197268 -0.000224143 0.0996926)
(0.000177476 -0.000229784 0.0997061)
(0.000156467 -0.000232233 0.0997724)
(0.000135313 -0.000232555 0.0998858)
(0.000114641 -0.000231589 0.100028)
(9.47822e-05 -0.000229982 0.100178)
(7.58408e-05 -0.000228203 0.100319)
(5.77667e-05 -0.000226512 0.10044)
(4.03958e-05 -0.000225087 0.100533)
(2.35156e-05 -0.000223985 0.100595)
(6.91011e-06 -0.000223291 0.100625)
(-9.64167e-06 -0.000223017 0.100621)
(-2.63524e-05 -0.000223204 0.100583)
(-4.34314e-05 -0.00022385 0.10051)
(-6.11147e-05 -0.000224939 0.100402)
(-7.96066e-05 -0.000226392 0.100263)
(-9.90487e-05 -0.000228042 0.100098)
(-0.000119475 -0.000229549 0.0999239)
(-0.000140727 -0.000230343 0.0997597)
(-0.000162419 -0.000229613 0.0996316)
(-0.000183878 -0.000226363 0.0995637)
(-0.000203975 -0.000219371 0.0995666)
(-0.000221238 -0.000207092 0.0996109)
(-0.000233185 -0.000186304 0.0995065)
(-0.000211661 -0.000139174 0.0980097)
(-0.000157989 -7.09816e-05 0.0898979)
(0.000149439 -7.83193e-05 0.0884519)
(0.000191728 -0.000155103 0.0971526)
(0.000213351 -0.000211747 0.0991418)
(0.000200978 -0.000234923 0.0994235)
(0.000183338 -0.000247397 0.0994974)
(0.000162994 -0.000253729 0.0995883)
(0.000141766 -0.000256348 0.0997279)
(0.000120959 -0.000256814 0.0999041)
(0.0001013 -0.000256137 0.100094)
(8.29914e-05 -0.000255003 0.100276)
(6.59872e-05 -0.00025377 0.100435)
(5.00604e-05 -0.00025263 0.100564)
(3.49396e-05 -0.000251634 0.10066)
(2.0341e-05 -0.00025086 0.100723)
(6.01293e-06 -0.000250313 0.100753)
(-8.24057e-06 -0.000250051 0.100751)
(-2.26289e-05 -0.000250083 0.100716)
(-3.7375e-05 -0.000250429 0.100645)
(-5.27307e-05 -0.000251093 0.100537)
(-6.90033e-05 -0.000252059 0.100389)
(-8.64983e-05 -0.000253249 0.100204)
(-0.000105412 -0.000254452 0.0999913)
(-0.000125781 -0.000255196 0.099769)
(-0.000147356 -0.000254657 0.0995638)
(-0.00016936 -0.00025156 0.0994065)
(-0.000190387 -0.000244158 0.0993169)
(-0.000208554 -0.000229803 0.099271)
(-0.000221298 -0.000203835 0.0990493)
(-0.00019995 -0.000144223 0.0971499)
(-0.000155872 -6.63684e-05 0.0885012)
(0.000147019 -7.41749e-05 0.0865768)
(0.000176771 -0.000152833 0.0958493)
(0.000197363 -0.000224651 0.0985426)
(0.000183956 -0.000253914 0.0990734)
(0.000165366 -0.00026833 0.0992944)
(0.000144465 -0.00027523 0.0994975)
(0.00012342 -0.000278135 0.0997273)
(0.000103801 -0.000278995 0.0999702)
(8.60589e-05 -0.000279024 0.100202)
(7.01329e-05 -0.000278719 0.100405)
(5.56764e-05 -0.000278337 0.100571)
(4.2298e-05 -0.000277918 0.100699)
(2.96008e-05 -0.000277504 0.10079)
(1.72992e-05 -0.000277096 0.100848)
(5.20362e-06 -0.000276757 0.100877)
(-6.8479e-06 -0.000276498 0.100878)
(-1.89578e-05 -0.000276356 0.100849)
(-3.12836e-05 -0.000276335 0.100787)
(-4.40679e-05 -0.000276446 0.100688)
(-5.76448e-05 -0.0002767 0.100544)
(-7.24266e-05 -0.00027711 0.100354)
(-8.88664e-05 -0.000277599 0.100117)
(-0.000107318 -0.000277891 0.0998449)
(-0.000127834 -0.000277257 0.0995592)
(-0.000149911 -0.000274367 0.0992919)
(-0.00017198 -0.000266796 0.0990677)
(-0.000191612 -0.00025083 0.098855)
(-0.000205993 -0.000218647 0.0983762)
(-0.000186361 -0.000143044 0.0957887)
(-0.000155166 -6.19126e-05 0.0866023)
(0.000153412 -4.57914e-05 0.0839512)
(0.000156364 -0.000147698 0.0936854)
(0.000174935 -0.000236964 0.0976219)
(0.000160266 -0.000269081 0.0986434)
(0.000140011 -0.000284679 0.0990798)
(0.000118822 -0.000292232 0.0994225)
(9.95425e-05 -0.000295732 0.0997522)
(8.28178e-05 -0.000297635 0.100057)
(6.85946e-05 -0.000298814 0.100317)
(5.62539e-05 -0.000299735 0.100527)
(4.51268e-05 -0.000300407 0.100687)
(3.46744e-05 -0.000300854 0.100804)
(2.45325e-05 -0.000301063 0.100884)
(1.4488e-05 -0.000301091 0.100936)
(4.4556e-06 -0.000300955 0.100962)
(-5.53894e-06 -0.000300725 0.100966)
(-1.55014e-05 -0.000300394 0.100945)
(-2.54371e-05 -0.000299978 0.100897)
(-3.54533e-05 -0.000299462 0.100815)
(-4.58227e-05 -0.000298875 0.100688)
(-5.69955e-05 -0.000298229 0.100509)
(-6.95643e-05 -0.000297593 0.100268)
(-8.4234e-05 -0.000296856 0.0999656)
(-0.000101722 -0.000295581 0.0996092)
(-0.000122153 -0.000292457 0.0992237)
(-0.000144693 -0.00028496 0.098833)
(-0.000166665 -0.0002683 0.0983739)
(-0.000183112 -0.000233627 0.0973822)
(-0.000166348 -0.000140279 0.0935572)