/*--------------------------------*- C++ -*----------------------------------*\
| =========                 |                                                 |
| \\      /  F ield         | OpenFOAM: The Open Source CFD Toolbox           |
|  \\    /   O peration     | Version:  2312                                  |
|   \\  /    A nd           | Website:  www.openfoam.com                      |
|    \\/     M anipulation  |                                                 |
\*---------------------------------------------------------------------------*/
FoamFile
{
    version     2.0;
    format      ascii;
    arch        "LSB;label=32;scalar=64";
    class       volScalarField;
    location    "2/tube";
    object      alphat;
}
// * * * * * * * * * * * * * * * * * * * * * * * * * * * * * * * * * * * * * //

dimensions      [1 -1 -1 0 0 0 0];

internalField   nonuniform List<scalar> 
5195
(
0.00181703
0.0144813
0.0168011
0.0020154
0.0023877
0.00205856
0.00127002
0.0270998
0.021034
0.00209783
0.00235518
0.00234895
0.0143578
0.00232161
0.0194369
0.00219598
0.0505824
0.00215402
0.00122008
0.00184102
0.0017752
0.0183257
0.0184786
0.00172098
0.0146501
0.0181895
0.00202351
0.00204299
0.0165281
0.0149375
0.120735
0.0224474
0.0498231
0.00236592
0.00152779
0.0374117
0.0135325
0.0140387
0.00149117
0.00142984
0.00195242
0.0195499
0.0198244
0.0168259
0.00244883
0.0168474
0.0195668
0.00255754
0.0210453
0.0751308
0.00195175
0.0820471
0.00179077
0.0186588
0.00198261
0.243189
0.00180251
0.0169057
0.00189962
0.0980638
0.0184485
0.0155191
0.00177164
0.0196371
0.0165518
0.0180354
0.00216638
0.0171475
0.0205401
0.0171848
0.0142866
0.0172395
0.0177732
0.0160721
0.0174081
0.0227972
0.0020182
0.00138438
0.0150079
0.00127246
0.00194741
0.00192861
0.0283228
0.0180528
0.0154066
0.0190095
0.0248625
0.00211547
0.00212496
0.00239979
0.0168219
0.0013491
0.0161833
0.00173686
0.0166428
0.00154588
0.0205141
0.023011
0.000905523
0.00149518
0.00174679
0.0186929
0.00171569
0.00243229
0.0896485
0.0159182
0.0167285
0.0159621
0.00195913
0.00156397
0.000756964
0.00233184
0.00225081
0.0125481
0.000851152
0.0190325
0.0132982
0.0120435
0.0171229
0.0159569
0.0177581
0.0167299
0.016893
0.00192024
0.0186721
0.0133919
0.0184893
0.00191262
0.00213497
0.0173895
0.016175
0.0017015
0.0187028
0.0165615
0.0140448
0.0013702
0.00137739
0.00195728
0.0181794
0.0202963
0.00241483
0.0171805
0.0159958
0.00185783
0.00184696
0.0173226
0.00230858
0.00243092
0.0182379
0.0166907
0.0174138
0.00173625
0.016139
0.00207417
0.0265355
0.0149969
0.0133709
0.0231976
0.0157807
0.0202347
0.0155205
0.00163463
0.014936
0.00202046
0.0154739
0.00200471
0.0258199
0.0170873
0.0160152
0.0019404
0.0177369
0.00163301
0.0156853
0.014495
0.0172938
0.00138871
0.0147254
0.00179584
0.0499207
0.0020906
0.0351037
0.0251535
0.00166356
0.0881717
0.0872773
0.0197119
0.0190988
0.0164554
0.00137396
0.00156502
0.01641
0.0257883
0.0145674
0.0159094
0.0221471
0.00162993
0.0153066
0.0162378
0.0145681
0.0333966
0.00137599
0.0154842
0.017462
0.00150984
0.0198362
0.0884093
0.0146704
0.0223263
0.00235346
0.00146368
0.0154076
0.0146505
0.0135556
0.00179577
0.0141465
0.00166182
0.0161944
0.00173696
0.0013744
0.0185969
0.00158148
0.0146339
0.197699
0.0155155
0.002103
0.0163585
0.0168414
0.00170786
0.00200296
0.0188403
0.0188806
0.0173104
0.00182931
0.0161792
0.0153526
0.015889
0.00163535
0.0165378
0.0020579
0.0140937
0.0162226
0.0163351
0.014501
0.018638
0.0144089
0.0165661
0.00281192
0.00193907
0.0155497
0.00183769
0.00234946
0.0143494
0.0153464
0.0158668
0.0151824
0.00139672
0.00183899
0.0164121
0.0133926
0.0153645
0.0162947
0.0154328
0.0201612
0.0181088
0.017835
0.0022384
0.00193467
0.0162884
0.0168241
0.0139567
0.023286
0.0188919
0.0141044
0.0189824
0.00187765
0.0169292
0.00243821
0.018177
0.0176349
0.0183267
0.00224423
0.0158198
0.0182633
0.213545
0.0023241
0.00188609
0.00193981
0.00275857
0.00187901
0.0212916
0.0149057
0.00180859
0.0141033
0.0192387
0.018569
0.0158095
0.0143713
0.0020652
0.00154939
0.00132124
0.00186684
0.0147824
0.0167225
0.00187696
0.0194009
0.00198457
0.00189336
0.00178935
0.001677
0.0193602
0.00204158
0.0154105
0.0179053
0.0208988
0.00153977
0.0018132
0.0171363
0.0205165
0.00186946
0.0201728
0.0129478
0.00178413
0.01824
0.016891
0.019843
0.0140745
0.00188659
0.0167288
0.0164636
0.00126585
0.00148608
0.00194716
0.0152698
0.0236311
0.00162943
0.0140146
0.0017457
0.0146395
0.00182784
0.0215042
0.00216285
0.0251063
0.0171176
0.016106
0.0158484
0.0130839
0.01596
0.121174
0.0456261
0.0140156
0.00225954
0.0187203
0.00223321
0.0016151
0.0226276
0.0744453
0.000988139
0.0173662
0.0201263
0.0179876
0.017635
0.00177757
0.016578
0.0817987
0.00250318
0.016248
0.0136563
0.077801
0.00188388
0.0155532
0.00184895
0.00198561
0.00143667
0.00185615
0.0206702
0.0148389
0.0185256
0.0169014
0.0159434
0.00194657
0.0144486
0.00200929
0.0143356
0.00191854
0.00179339
0.0231881
0.0020629
0.0195783
0.0168147
0.0193883
0.0227247
0.0163394
0.00179839
0.00156889
0.00204748
0.0140521
0.00231476
0.0020954
0.0136629
0.00224541
0.0210553
0.0024294
0.0153188
0.00248172
0.0196601
0.0139199
0.226961
0.00160019
0.0133413
0.23402
0.0306849
0.01654
0.0149376
0.0197279
0.0171357
0.00158905
0.0200443
0.0187544
0.0213604
0.0180249
0.0170014
0.0020809
0.0139997
0.0240168
0.0169645
0.00185762
0.0224805
0.00242157
0.00221375
0.0178972
0.0276382
0.00272186
0.00192805
0.025195
0.0290401
0.0252293
0.0143112
0.0163241
0.00174679
0.00199747
0.0175312
0.00199658
0.00187554
0.00170088
0.00201376
0.0133141
0.063806
0.0138123
0.00173681
0.0159106
0.00194477
0.00117703
0.00152568
0.0169697
0.0126057
0.015314
0.0165609
0.0250943
0.0172403
0.00205199
0.0159035
0.0013965
0.0132963
0.00184096
0.0215574
0.00185976
0.016229
0.00201764
0.00204356
0.00177426
0.0162902
0.0159663
0.00270296
0.00203943
0.0134612
0.00147082
0.0133488
0.0163497
0.0153468
0.00165547
0.0144924
0.0181235
0.00256113
0.0210808
0.0168091
0.0176788
0.0142993
0.0203772
0.0148945
0.0159125
0.0021401
0.0145124
0.00184365
0.0315222
0.00232157
0.00192713
0.00174198
0.00138553
0.00215767
0.00280106
0.0181035
0.0157481
0.0160384
0.00199269
0.0157979
0.0193883
0.00166809
0.0176779
0.0140213
0.00174989
0.0202763
0.015647
0.00213647
0.0150553
0.0164841
0.0163695
0.00159855
0.00173064
0.0270562
0.00187296
0.0155928
0.0407022
0.00148352
0.00181351
0.000838441
0.00204356
0.0148166
0.00202505
0.0143918
0.0381926
0.0195847
0.0160518
0.0219317
0.00193547
0.0150768
0.0159562
0.0198671
0.0143689
0.00189206
0.0171717
0.0159145
0.00167935
0.00148854
0.00187084
0.0170031
0.0174746
0.0185805
0.00182552
0.00185715
0.0150577
0.0184739
0.00207571
0.0153021
0.00195164
0.0158027
0.00233372
0.0178101
0.00201892
0.0248159
0.00158826
0.0164334
0.0159777
0.0161674
0.00185173
0.00238337
0.0160821
0.0163587
0.00225122
0.0167934
0.00103006
0.0224724
0.0208062
0.019928
0.0186135
0.0187841
0.0153409
0.0404692
0.00187259
0.00232795
0.017942
0.0013868
0.00177406
0.00221967
0.0168784
0.00158143
0.32979
0.00186579
0.00180633
0.00126313
0.018033
0.021245
0.0159925
0.0171134
0.0418438
0.0016742
0.00115583
0.00169009
0.0364839
0.0150172
0.00162061
0.0157649
0.0312378
0.00102966
0.00216088
0.0169981
0.0159518
0.00284791
0.00231225
0.00300778
0.00217448
0.0195306
0.0195907
0.0237264
0.0156292
0.0287528
0.00169324
0.0190605
0.0222694
0.00179384
0.00249062
0.00164667
0.00227446
0.032199
0.00192039
0.0191882
0.0265467
0.0446789
0.0378897
0.0194219
0.00205508
0.0173698
0.032652
0.0149058
0.0155195
0.0166257
0.14947
0.0200859
0.0146011
0.0144775
0.0019283
0.0168216
0.00191113
0.00183635
0.0017969
0.00210567
0.0214167
0.0158493
0.00244247
0.0147302
0.0185898
0.00186481
0.0161493
0.0157133
0.0205222
0.00180467
0.0168369
0.00188869
0.0217102
0.0014328
0.00194311
0.00142531
0.00142153
0.0185202
0.0198888
0.0161858
0.00177361
0.0163106
0.00159953
0.00186732
0.0178712
0.0150444
0.0175294
0.00194062
0.0187777
0.00221725
0.0515474
0.0196102
0.0235516
0.015565
0.00172625
0.0141041
0.0200644
0.00209905
0.0018454
0.00205735
0.0019725
0.0214738
0.00175714
0.00170127
0.00205828
0.0194456
0.00183064
0.00192853
0.00167095
0.00177482
0.0203494
0.0178369
0.339763
0.0160702
0.0149049
0.0164727
0.0164446
0.00157441
0.0015248
0.00166617
0.0159793
0.0026561
0.0157735
0.0209779
0.00214988
0.0155364
0.00218824
0.0214733
0.00193639
0.00206236
0.00213136
0.0250572
0.0188366
0.00171358
0.02054
0.00175651
0.00150625
0.0301282
0.0403106
0.0019789
0.028879
0.0217254
0.00252137
0.0208972
0.01657
0.0167786
0.00173205
0.00190684
0.00150375
0.0168434
0.0129189
0.00193563
0.0147168
0.0170229
0.00190592
0.00178315
0.0130606
0.0149505
0.021609
0.00159447
0.0164589
0.0182871
0.0193364
0.0160608
0.0014306
0.0172659
0.00120649
0.0159612
0.0132951
0.0160888
0.0162631
0.0184113
0.0163595
0.0168063
0.00196476
0.0166062
0.0143096
0.00211692
0.0190643
0.0169276
0.0163773
0.00075304
0.00194498
0.00171679
0.0150086
0.0145355
0.00193782
0.0164997
0.0017394
0.0156997
0.0185567
0.30422
0.0216455
0.0166852
0.0168877
0.0190272
0.00189272
0.0164894
0.0160377
0.00205523
0.0183089
0.0164804
0.0171538
0.00218944
0.00264314
0.0152759
0.0165566
0.0178112
0.014374
0.0253191
0.01277
0.0195019
0.0145567
0.0183766
0.0227621
0.0200587
0.0168903
0.00194759
0.0150906
0.0163124
0.00145702
0.00179612
0.00184279
0.0158576
0.013271
0.00177785
0.0170581
0.0163298
0.0134987
0.00157818
0.00162327
0.00170541
0.00211936
0.0167077
0.0132707
0.00153222
0.00178962
0.0163476
0.0147445
0.00168826
0.001198
0.00217013
0.0167983
0.00206851
0.0157519
0.0186969
0.0186786
0.00207344
0.0214756
0.00190348
0.017821
0.00217484
0.00157096
0.0169537
0.00185993
0.0167991
0.0175014
0.299528
0.331643
0.016777
0.0145436
0.0196241
0.0193086
0.0242406
0.00221508
0.0181953
0.00117284
0.00253848
0.0165461
0.00102329
0.00177257
0.0201
0.0211106
0.00108162
0.139292
0.00177033
0.0209147
0.330327
0.0143044
0.00207709
0.0213677
0.0205991
0.0227956
0.0181654
0.00164874
0.00190873
0.0205747
0.0179184
0.00161412
0.0015346
0.00171099
0.00181423
0.0122715
0.0194486
0.00197365
0.014681
0.0173001
0.0166364
0.0221974
0.0163321
0.022484
0.00217242
0.0205856
0.00175681
0.0170718
0.00190017
0.0215115
0.0223375
0.0159945
0.0152108
0.0141008
0.00168806
0.00176249
0.00206799
0.00192532
0.00168932
0.0170751
0.0141406
0.035187
0.0169163
0.00148876
0.041605
0.00184683
0.0158103
0.002162
0.00176661
0.00176383
0.0184798
0.0305766
0.0303371
0.0190586
0.0151506
0.00160052
0.00198755
0.00163719
0.00203999
0.0162866
0.0174396
0.00156564
0.015374
0.00216897
0.0682088
0.0276662
0.0474087
0.0019012
0.0141739
0.0161628
0.00177068
0.0143858
0.015544
0.0156359
0.000903411
0.0177739
0.00146803
0.051208
0.0108553
0.00198825
0.00153242
0.0142717
0.00183511
0.0165814
0.00124574
0.00163838
0.0259537
0.306204
0.0243742
0.0517018
0.00162944
0.00173409
0.0187303
0.0183824
0.0470605
0.0149234
0.000969575
0.0269327
0.00186055
0.00162072
0.309321
0.168536
0.00190295
0.00151327
0.00201366
0.00164578
0.0166412
0.0022333
0.00165026
0.0017185
0.0364121
0.00174162
0.0167182
0.00192144
0.00195584
0.0449965
0.327306
0.00247387
0.00194696
0.0196429
0.0203698
0.00144498
0.00161976
0.0193557
0.0178343
0.0203138
0.0155186
0.0170878
0.018776
0.0162885
0.0157626
0.01617
0.00190757
0.00166874
0.0160413
0.0137814
0.0016843
0.0017893
0.00181061
0.0154359
0.0220631
0.0160321
0.0180487
0.001853
0.0151129
0.00161668
0.00207487
0.0165488
0.00148975
0.0147005
0.0165407
0.019766
0.0181154
0.014624
0.00184172
0.0178973
0.00145152
0.0169751
0.0021716
0.0171594
0.00170364
0.0153441
0.00227629
0.00196929
0.00219507
0.00248252
0.0206122
0.00212814
0.0152588
0.0186602
0.000945745
0.00156214
0.00167153
0.0182777
0.018
0.00149862
0.015885
0.015541
0.00162942
0.0155368
0.00158377
0.0020008
0.0249693
0.0209521
0.0020688
0.0158485
0.0161147
0.00223639
0.0183203
0.0222818
0.0170612
0.00156043
0.0230673
0.0144168
0.0178437
0.0148089
0.0173277
0.044191
0.00185163
0.0732985
0.0211022
0.00277679
0.0260304
0.0349749
0.0237726
0.0154285
0.0230844
0.0205
0.0195459
0.0182792
0.0184954
0.0177731
0.00188012
0.0169483
0.00185364
0.0229766
0.00192486
0.0161803
0.0220449
0.0177458
0.0133664
0.0180424
0.00206381
0.0185326
0.0017255
0.0170505
0.00175663
0.00109606
0.0182842
0.0187981
0.00184428
0.014569
0.00145624
0.0180444
0.00217818
0.00170433
0.0189031
0.00154627
0.0136458
0.00220667
0.00157351
0.00213066
0.0158774
0.0161315
0.0157493
0.0226311
0.00183379
0.0152509
0.00208665
0.0158539
0.0172748
0.0177606
0.00184384
0.00178547
0.00273222
0.0156948
0.0174903
0.00237237
0.00250573
0.0153017
0.0240854
0.0163712
0.0164234
0.0171839
0.0359893
0.00182233
0.00152687
0.0171806
0.00172904
0.0206911
0.00168925
0.00235097
0.00247025
0.0172557
0.00183121
0.00209925
0.00167013
0.00181636
0.0139344
0.0142423
0.00174841
0.0156473
0.00209539
0.0011389
0.00203639
0.0242618
0.00193434
0.00209293
0.00213481
0.0145776
0.00168118
0.0147303
0.0149702
0.00187404
0.0167336
0.0163571
0.0133944
0.0159839
0.00143382
0.00289194
0.00176264
0.00147008
0.00165436
0.00141905
0.00148734
0.00156465
0.0167309
0.00216779
0.0166868
0.0192023
0.0140712
0.0144747
0.00155984
0.00162902
0.00184511
0.0151733
0.0163916
0.00140513
0.0180144
0.00151275
0.00199044
0.00173238
0.00218389
0.0274199
0.0165804
0.0152899
0.00197967
0.0186677
0.025583
0.0157737
0.0202998
0.00180767
0.0184236
0.00185499
0.0163655
0.00189305
0.0154811
0.0186728
0.00235621
0.017049
0.00221972
0.0173859
0.0024639
0.072622
0.024459
0.0211472
0.0186179
0.00221187
0.00164056
0.00224675
0.0197402
0.0205363
0.00189469
0.00180385
0.00186374
0.015864
0.00187592
0.0150874
0.00186398
0.00180206
0.00176802
0.0183035
0.0180456
0.00180988
0.0162627
0.0192947
0.00171541
0.0180272
0.00180566
0.0149144
0.00257598
0.00181322
0.0167441
0.0144772
0.0172797
0.0170049
0.00229068
0.0262112
0.00263795
0.0221398
0.0192708
0.0162724
0.00182895
0.00211038
0.00226301
0.0147232
0.00141803
0.00197685
0.0014242
0.00175478
0.0160272
0.00131469
0.0182063
0.0178533
0.0193529
0.00170773
0.0014951
0.0121098
0.0141051
0.00211894
0.0154009
0.0020449
0.0184988
0.00205611
0.00198243
0.00160242
0.00151322
0.0168001
0.00202485
0.00199337
0.00205995
0.0352139
0.00197323
0.00195302
0.0141375
0.00199961
0.0253061
0.0193892
0.0153459
0.0153412
0.0140149
0.00168198
0.00199941
0.00182727
0.0218529
0.00262937
0.0181295
0.00167796
0.0158681
0.0154254
0.00190224
0.00169445
0.00206094
0.0155002
0.0151696
0.0157588
0.0432489
0.0202447
0.015801
0.001903
0.0207295
0.0218009
0.00193169
0.0172292
0.0170938
0.00154837
0.0166602
0.0265348
0.0151355
0.243272
0.0158241
0.00189833
0.0117633
0.015607
0.00202332
0.0205666
0.00213797
0.00225621
0.00200219
0.00140117
0.00194842
0.00148926
0.0158598
0.0136148
0.00209657
0.00122265
0.0378925
0.00199253
0.0465462
0.00183044
0.0377261
0.00208367
0.00189781
0.0170146
0.00195262
0.00190247
0.00157615
0.0159213
0.0157461
0.00171093
0.0144654
0.00163584
0.0207116
0.00182048
0.00174958
0.00217952
0.0159142
0.0212495
0.0204623
0.0503628
0.0170627
0.0165046
0.00176857
0.00195166
0.00102841
0.0226365
0.00195141
0.00186001
0.0174419
0.0164857
0.0147056
0.00196704
0.0211033
0.0670569
0.00253143
0.0172729
0.0158008
0.0193006
0.0154261
0.0185144
0.0145412
0.0154088
0.00170364
0.0139071
0.015031
0.015526
0.0127661
0.00149848
0.00240324
0.00165436
0.00222883
0.00211443
0.0170891
0.0148307
0.00159704
0.338514
0.00148687
0.223356
0.00142167
0.0139771
0.0140552
0.0162699
0.0126891
0.00233842
0.228938
0.0021087
0.00150992
0.00206436
0.00203337
0.0171088
0.016851
0.0021735
0.00148542
0.257942
0.00174411
0.00186277
0.0150391
0.00176447
0.0145468
0.00205182
0.0148959
0.00169927
0.015892
0.0126671
0.0157411
0.00188304
0.015492
0.0159681
0.0200646
0.00149514
0.00136365
0.0199693
0.0153167
0.00149467
0.0139972
0.0175975
0.0157031
0.00191094
0.0171644
0.0168023
0.0137299
0.016305
0.00260974
0.00145558
0.0170428
0.00178563
0.0180526
0.018128
0.016977
0.0119874
0.00168288
0.00160864
0.0201758
0.00151241
0.0165321
0.00200389
0.00201527
0.00185138
0.00195452
0.00165343
0.00178692
0.00212786
0.0175958
0.00210516
0.00202835
0.0158607
0.0143676
0.00201403
0.0531709
0.0138992
0.00271012
0.00160984
0.00270238
0.00193523
0.00159153
0.00201407
0.0014465
0.00169949
0.0275302
0.0019593
0.0017764
0.00174648
0.00217993
0.0154153
0.0156864
0.00157999
0.0157263
0.00188252
0.00179394
0.00209993
0.0175198
0.0139292
0.00144262
0.0140047
0.0160723
0.00170869
0.017691
0.00184139
0.0022678
0.0772676
0.00177217
0.0152075
0.00223934
0.00198249
0.00141483
0.0190526
0.00140126
0.00272262
0.0164086
0.0193906
0.00264705
0.00243912
0.00144441
0.0196401
0.0172626
0.0214235
0.0164456
0.0147866
0.01736
0.00202996
0.0212767
0.00191062
0.0178664
0.00160894
0.0166992
0.00203995
0.015779
0.00143965
0.00182394
0.00210698
0.00166177
0.0184548
0.00197915
0.0201458
0.001404
0.00146712
0.00194812
0.00173279
0.0144515
0.00236665
0.00193035
0.0013622
0.0155085
0.0176722
0.00200175
0.00170915
0.00201065
0.00200089
0.00164911
0.0187307
0.0168415
0.00151535
0.0160314
0.00218049
0.00159057
0.00173085
0.00190596
0.00209825
0.00194304
0.0186211
0.0167864
0.00180826
0.00176388
0.0193648
0.00212805
0.0168883
0.00216783
0.00163893
0.00263304
0.00191207
0.0234908
0.00175485
0.00101801
0.00183948
0.00206128
0.0185172
0.0193892
0.0152942
0.00189016
0.00164467
0.00264254
0.00147157
0.0190737
0.00190338
0.0155966
0.00195287
0.00139061
0.0191817
0.00256872
0.015334
0.00269554
0.0179587
0.00262431
0.00170644
0.016998
0.0202322
0.0178484
0.0135662
0.0121349
0.00180097
0.0152325
0.00161245
0.0206721
0.0207794
0.0187604
0.0176872
0.00236541
0.0153032
0.00231222
0.0027801
0.0016664
0.0143612
0.0151748
0.0134298
0.001455
0.0021269
0.0158055
0.0145221
0.0185927
0.0666972
0.00229597
0.0199257
0.00232724
0.00232557
0.00170487
0.0173157
0.00160558
0.00187824
0.01736
0.0235959
0.0296064
0.0262724
0.0015855
0.0143761
0.00113187
0.00157406
0.00207829
0.00165597
0.0273711
0.0213954
0.00143973
0.0148555
0.0145061
0.0146085
0.00157921
0.0214897
0.0165363
0.0186936
0.00218351
0.0200763
0.0142955
0.00192733
0.00195876
0.00180903
0.0187694
0.0156288
0.0150799
0.0186001
0.00192406
0.0201188
0.0206367
0.0146068
0.00174481
0.0166425
0.014067
0.0019023
0.0172169
0.00198672
0.0164622
0.016852
0.00181301
0.00201866
0.0164527
0.00184408
0.00172975
0.00189106
0.0178137
0.0163311
0.0145649
0.00184555
0.0160388
0.00163254
0.0129078
0.0189959
0.00201275
0.00173622
0.00208453
0.0021971
0.0165073
0.0161784
0.00163145
0.0158394
0.014816
0.0169893
0.00189113
0.0194568
0.0021711
0.0146617
0.00132591
0.0181423
0.0164729
0.0159115
0.00187966
0.0143596
0.0172632
0.0208506
0.00218562
0.00168975
0.0153412
0.0186665
0.00163001
0.0210102
0.0175763
0.00199042
0.00184575
0.0241329
0.00207389
0.00206144
0.0197515
0.00170485
0.0148227
0.00166395
0.0195362
0.00138901
0.00196082
0.0434602
0.00197348
0.0177035
0.0186747
0.0514426
0.0194129
0.00164697
0.0151708
0.00197094
0.00311768
0.0157573
0.00175714
0.0020512
0.00176684
0.00231556
0.00152737
0.0187544
0.00165242
0.00208266
0.013617
0.0159219
0.018249
0.0161144
0.0186457
0.00271781
0.00207112
0.00181005
0.0148116
0.018859
0.0022726
0.0180969
0.00203283
0.0173472
0.0191315
0.0020688
0.00162047
0.0020147
0.00178483
0.00172456
0.019478
0.00212018
0.00222651
0.00207925
0.00147793
0.00229901
0.00160386
0.00205863
0.0165803
0.016243
0.0357888
0.0019326
0.00135404
0.00131187
0.00137224
0.0146673
0.000970125
0.0152572
0.0167958
0.0163812
0.0141746
0.0153327
0.0158668
0.0134207
0.0018601
0.00196366
0.00184445
0.00189485
0.00168312
0.00207419
0.00192327
0.00168649
0.00179791
0.0125143
0.0140977
0.015596
0.00185294
0.0184547
0.0158148
0.00244549
0.0152909
0.00207961
0.00210785
0.0133115
0.00224302
0.00199173
0.0161102
0.00155294
0.0188778
0.0148919
0.0196696
0.00198431
0.0020134
0.00199083
0.00211034
0.0200084
0.016362
0.00220959
0.0171008
0.108433
0.00180427
0.0146396
0.00180614
0.0212017
0.0207042
0.00153091
0.0112964
0.0135661
0.0194116
0.00107985
0.00206435
0.022992
0.00183704
0.00201243
0.00187912
0.00147478
0.00185743
0.00174892
0.00188432
0.00204278
0.00182652
0.0164734
0.0284455
0.0166731
0.00163051
0.0205175
0.0187118
0.0208841
0.0211234
0.0170585
0.0166006
0.0166966
0.0220438
0.0163111
0.0216706
0.025398
0.00233011
0.00207356
0.0131494
0.00175996
0.0251635
0.00199418
0.00152473
0.0159142
0.00187173
0.00188291
0.00239978
0.0188342
0.00179764
0.00180913
0.00118164
0.00187915
0.0157973
0.0148237
0.0179393
0.00246223
0.0149513
0.0191785
0.00175104
0.00200808
0.0180148
0.00116975
0.0021589
0.0164971
0.00153057
0.0160287
0.0164813
0.0161287
0.0238236
0.0017483
0.0139785
0.0158059
0.00182748
0.0167081
0.0158629
0.0155255
0.0173315
0.0154787
0.0188323
0.0153808
0.0141529
0.0154415
0.00131017
0.00177101
0.0015034
0.0178826
0.0017215
0.0011542
0.0153122
0.0264874
0.0403562
0.0017315
0.00165364
0.0179105
0.0260839
0.00229207
0.0162761
0.0164738
0.00156556
0.0162306
0.015898
0.0155495
0.0155158
0.0017129
0.0135489
0.00243899
0.00184128
0.0159206
0.00175088
0.0155471
0.0159163
0.018847
0.0018595
0.018861
0.00171821
0.0199743
0.00156156
0.0020178
0.00171506
0.00186564
0.00231715
0.0145077
0.0176253
0.0148285
0.00214537
0.00200838
0.018727
0.0145202
0.0154079
0.0163306
0.00189551
0.0159144
0.019768
0.0174389
0.0183904
0.0183668
0.0208378
0.0155611
0.00174996
0.0242434
0.00219772
0.0196295
0.0747472
0.00220427
0.00175608
0.0144792
0.0193052
0.00178752
0.00183056
0.0141192
0.00168762
0.0132105
0.00168015
0.0153184
0.0747334
0.00187007
0.0506858
0.0221627
0.00187507
0.0404887
0.00160765
0.00182544
0.0478206
0.0167521
0.00252759
0.0157328
0.339307
0.00247495
0.0297617
0.0253934
0.0724712
0.0218152
0.0212154
0.00104276
0.0191801
0.0167563
0.0170235
0.021937
0.0223573
0.0204443
0.0268118
0.00125002
0.00138172
0.0227824
0.0239218
0.00233867
0.00205883
0.00148468
0.0149828
0.0187635
0.0206253
0.0185208
0.00193538
0.0158407
0.0176605
0.0201377
0.00191912
0.00141352
0.0143594
0.0022619
0.00162254
0.00208944
0.016603
0.00186619
0.00177094
0.00228572
0.0159972
0.0214284
0.212825
0.0233278
0.0134614
0.0011219
0.0139233
0.00148161
0.0149329
0.0140039
0.0142632
0.0018949
0.0138796
0.00173253
0.00147159
0.001874
0.00158712
0.00139776
0.00138958
0.0160375
0.0154444
0.00185813
0.00189599
0.00218077
0.0141515
0.0161641
0.0141929
0.00161313
0.00201959
0.00169014
0.0191317
0.00201805
0.0134875
0.00195902
0.0160195
0.01628
0.0188632
0.00212344
0.016292
0.00206401
0.0160156
0.0165167
0.00236133
0.0165743
0.0156392
0.0211017
0.0163414
0.00160728
0.00215078
0.00141922
0.00179881
0.0183735
0.0018737
0.00199392
0.00203412
0.00204279
0.0253982
0.00186233
0.0019528
0.00252608
0.0154884
0.00169196
0.0175183
0.00181888
0.0161035
0.0184064
0.0149576
0.029036
0.00189669
0.141133
0.0277747
0.0182778
0.00185286
0.0440004
0.0020079
0.0154389
0.0211945
0.0158856
0.00177414
0.0165767
0.00189898
0.00199916
0.00250915
0.0238573
0.0166432
0.0167165
0.0174471
0.0176764
0.0172862
0.00189607
0.00222202
0.0139957
0.0184346
0.00192965
0.00185475
0.0220445
0.0138328
0.0147602
0.0148022
0.015441
0.00146419
0.00171385
0.0130097
0.00171412
0.0017619
0.0158995
0.00193148
0.0153678
0.0149102
0.00178007
0.0170115
0.0163291
0.00193585
0.00170795
0.00205283
0.0164273
0.0148485
0.0153628
0.0129393
0.0187237
0.00157596
0.00205927
0.0147576
0.0163449
0.0020975
0.0016424
0.0160676
0.00154566
0.018049
0.0140694
0.0157238
0.0015824
0.0163469
0.0219871
0.0164915
0.0125033
0.0184297
0.00149045
0.0153731
0.0240983
0.020442
0.00198524
0.0202133
0.0210255
0.0169913
0.0154277
0.00137409
0.00208747
0.0140433
0.00199784
0.0324288
0.00150269
0.0255241
0.0151617
0.01386
0.0167871
0.00272717
0.00162368
0.0149075
0.0353137
0.0216291
0.00197586
0.0282799
0.0185284
0.00160983
0.0142354
0.0187915
0.0165441
0.00229818
0.0187456
0.0146833
0.00256307
0.0143211
0.0188533
0.00195797
0.00186884
0.0175769
0.00203521
0.0161749
0.00157549
0.00198655
0.0208354
0.00168605
0.0175835
0.0202724
0.0155053
0.0186565
0.00170372
0.00192184
0.018452
0.0216405
0.0191246
0.021042
0.0186927
0.0173845
0.0176421
0.0188856
0.001632
0.00171961
0.00174497
0.0162504
0.0164313
0.00158299
0.00206023
0.00188759
0.0240769
0.00150093
0.00201962
0.0353043
0.00201588
0.00190276
0.0017802
0.0232897
0.0202007
0.0023006
0.00205351
0.00193228
0.00161604
0.00172217
0.00171511
0.0265581
0.0189762
0.00247188
0.0205253
0.0213091
0.019538
0.0153112
0.00146378
0.00187739
0.00171338
0.00146206
0.0193505
0.00230709
0.0180227
0.0219857
0.0160192
0.0233775
0.00151765
0.0237411
0.00168888
0.0228016
0.00205185
0.0318673
0.00191879
0.00181672
0.0019313
0.00142432
0.00167531
0.0121716
0.00253001
0.0143553
0.0135749
0.0163263
0.0014946
0.0299916
0.0141914
0.00197065
0.00203405
0.0410804
0.00159405
0.00184883
0.00179396
0.00163915
0.002259
0.0144043
0.0169463
0.0121941
0.0202687
0.00173593
0.00193416
0.00174288
0.00160965
0.00182036
0.00202795
0.00206276
0.00133592
0.0188019
0.00198632
0.00175781
0.00143242
0.0529422
0.00186363
0.0187538
0.00170772
0.0151323
0.00127925
0.0157453
0.00191917
0.0155663
0.00174744
0.00180785
0.014555
0.00225676
0.0380779
0.00236979
0.00141033
0.0023592
0.0169237
0.00203246
0.0022453
0.00173498
0.0164943
0.0167291
0.00164018
0.00189604
0.0017341
0.0229881
0.0252668
0.00190443
0.00125288
0.017349
0.0186213
0.0140935
0.024548
0.00178715
0.00145373
0.0179885
0.00117428
0.0197929
0.00200883
0.0171841
0.0152534
0.0154361
0.0184255
0.00180568
0.017464
0.0152438
0.00174706
0.00155671
0.0179982
0.0222777
0.017793
0.0167171
0.0224321
0.016209
0.00199758
0.00168829
0.0161904
0.00102385
0.017367
0.00177319
0.015993
0.041675
0.015591
0.00166147
0.00145015
0.0195135
0.00177864
0.0162314
0.00199146
0.0140593
0.0015823
0.00149681
0.00167956
0.0276264
0.00205251
0.00150037
0.0141551
0.00171294
0.00211742
0.000790663
0.00175424
0.00145561
0.00198666
0.0145216
0.00208497
0.0159465
0.0159527
0.0155581
0.00205428
0.00173153
0.00163742
0.0193791
0.00164921
0.00147435
0.0203777
0.0163717
0.00190985
0.00181038
0.0162215
0.0190227
0.015697
0.00157493
0.0146149
0.0140603
0.0141231
0.0123305
0.0162314
0.00171245
0.0179667
0.00177093
0.0194269
0.00207741
0.00175594
0.0196701
0.0163309
0.021874
0.00167754
0.00191714
0.0192447
0.0196553
0.00175976
0.0148554
0.0411067
0.00172856
0.0150922
0.00190126
0.0164559
0.00160788
0.0195696
0.0140571
0.00165372
0.00213098
0.00211275
0.00153614
0.0179062
0.0205491
0.00197054
0.0180091
0.002068
0.0199982
0.00167992
0.00182244
0.00156712
0.00149792
0.0195883
0.00160239
0.0162377
0.00155428
0.0162362
0.00180461
0.00151863
0.0186088
0.0175254
0.0164063
0.0171288
0.0140894
0.0149955
0.00188151
0.00153492
0.00194963
0.0180148
0.0017628
0.00116268
0.0189445
0.0149626
0.00120217
0.00201351
0.0213773
0.0172162
0.00220029
0.0153714
0.00177553
0.0018721
0.0169447
0.0124269
0.0145875
0.0166423
0.00181527
0.001974
0.0140157
0.0211615
0.00144289
0.00152895
0.0143536
0.0161228
0.00314996
0.0143775
0.015612
0.00172597
0.0171707
0.00174973
0.01816
0.017215
0.00154044
0.0151448
0.00174175
0.00215962
0.0188877
0.00253213
0.00188551
0.00143303
0.0151806
0.00218662
0.016347
0.00182684
0.0148563
0.00171496
0.00183419
0.0025003
0.00189417
0.0190818
0.0181471
0.0186492
0.00187983
0.0017425
0.0160807
0.00249114
0.00144261
0.00151144
0.0161497
0.00205667
0.00208248
0.0169222
0.0179259
0.00187296
0.00147521
0.0179106
0.0154875
0.0137274
0.0155524
0.00191069
0.0158148
0.0221705
0.0160728
0.0150155
0.00172195
0.00151018
0.0141804
0.00233078
0.000998913
0.0190479
0.00177213
0.00194069
0.00166615
0.00193793
0.0212532
0.00192399
0.00181752
0.00151331
0.00185202
0.0195054
0.00150094
0.0937848
0.00155024
0.00129928
0.016736
0.0016044
0.00151808
0.00162589
0.0017535
0.0022834
0.00215178
0.00193774
0.00184017
0.00181294
0.00152672
0.00261025
0.00192446
0.0201431
0.0205696
0.00171343
0.00127444
0.0157823
0.00169555
0.0167331
0.0158929
0.00146504
0.0161012
0.0162376
0.0158472
0.00201536
0.00177902
0.014907
0.00258535
0.00220305
0.00160074
0.0180195
0.0207422
0.00159254
0.00164053
0.0175285
0.00152286
0.00168919
0.013172
0.00159571
0.0204137
0.00167565
0.0145454
0.00164536
0.014504
0.00193676
0.0162202
0.0143154
0.0016755
0.0163867
0.0162882
0.0133089
0.0173388
0.0013886
0.0155342
0.00159817
0.00186426
0.0164621
0.0178463
0.00162505
0.00168555
0.00170087
0.00210952
0.0163394
0.0134462
0.016777
0.02263
0.00163596
0.0239692
0.0025655
0.0200358
0.00166689
0.00192396
0.00235461
0.0202739
0.00192328
0.00253663
0.0193198
0.00189244
0.0159936
0.0020163
0.0181661
0.0213933
0.0191504
0.0170323
0.00195712
0.0026932
0.0020509
0.00149235
0.0211373
0.00119854
0.0132043
0.00177162
0.0139624
0.0200585
0.0298342
0.0017153
0.0141646
0.0350368
0.0137928
0.0189941
0.0155757
0.00199789
0.00165331
0.00195742
0.00139345
0.0167216
0.00196512
0.0175067
0.0176515
0.0176767
0.0224954
0.00199895
0.0167579
0.00172678
0.0169539
0.00159994
0.2962
0.0176775
0.00240927
0.00161255
0.149077
0.0156885
0.00191099
0.0236842
0.338686
0.214231
0.0136784
0.0333422
0.0018505
0.00205
0.015838
0.0183933
0.205726
0.00192037
0.0160595
0.0226438
0.00278252
0.014677
0.016847
0.00168926
0.00174808
0.00191354
0.0172555
0.0142659
0.000980045
0.00223457
0.0197749
0.176774
0.00179428
0.0187173
0.301955
0.00191851
0.0173446
0.00255671
0.0140388
0.0163449
0.00181358
0.218985
0.0149832
0.00194863
0.0186304
0.00169798
0.0181141
0.0336697
0.0161158
0.0178214
0.0177785
0.0214058
0.0019066
0.00186033
0.0170632
0.0161895
0.0303041
0.00163062
0.00191477
0.00228525
0.0201794
0.00178525
0.00201486
0.013238
0.00182203
0.0353787
0.00214606
0.0025266
0.0164634
0.00242992
0.00240912
0.00188532
0.0255345
0.00156289
0.00147014
0.0146416
0.00196998
0.00221389
0.0201762
0.0260916
0.0147111
0.00167344
0.00166424
0.0205155
0.00225698
0.0167047
0.0154721
0.0016726
0.0238482
0.00110435
0.0154419
0.0130499
0.00170091
0.330973
0.00191965
0.132866
0.0157526
0.00195076
0.0133893
0.00189585
0.0136523
0.00197919
0.012361
0.0016058
0.0163682
0.00228995
0.0158438
0.0126907
0.00181596
0.00258907
0.00134257
0.002225
0.0018886
0.0169699
0.0167862
0.00182038
0.00130518
0.016404
0.00192438
0.00155629
0.00180834
0.018
0.00181392
0.00234167
0.0186926
0.0145844
0.00211858
0.018146
0.00194951
0.0184768
0.00201486
0.0168333
0.00231331
0.0189598
0.00196487
0.0141103
0.0185389
0.0163416
0.00201333
0.00154481
0.0184574