/*--------------------------------*- C++ -*----------------------------------*\
| =========                 |                                                 |
| \\      /  F ield         | OpenFOAM: The Open Source CFD Toolbox           |
|  \\    /   O peration     | Version:  2312                                  |
|   \\  /    A nd           | Website:  www.openfoam.com                      |
|    \\/     M anipulation  |                                                 |
\*---------------------------------------------------------------------------*/
FoamFile
{
    version     2.0;
    format      ascii;
    arch        "LSB;label=32;scalar=64";
    class       volScalarField;
    location    "2/tube";
    object      nut;
}
// * * * * * * * * * * * * * * * * * * * * * * * * * * * * * * * * * * * * * //

dimensions      [0 2 -1 0 0 0 0];

internalField   nonuniform List<scalar> 
5195
(
1.81703e-06
1.44813e-05
1.68011e-05
2.0154e-06
2.3877e-06
2.05856e-06
1.27002e-06
2.70998e-05
2.1034e-05
2.09783e-06
2.35518e-06
2.34895e-06
1.43578e-05
2.32161e-06
1.94369e-05
2.19598e-06
5.05824e-05
2.15402e-06
1.22008e-06
1.84102e-06
1.7752e-06
1.83257e-05
1.84786e-05
1.72098e-06
1.46501e-05
1.81895e-05
2.02351e-06
2.04299e-06
1.65281e-05
1.49375e-05
0.000120735
2.24474e-05
4.98231e-05
2.36592e-06
1.52779e-06
3.74117e-05
1.35325e-05
1.40387e-05
1.49117e-06
1.42984e-06
1.95242e-06
1.95499e-05
1.98244e-05
1.68259e-05
2.44883e-06
1.68474e-05
1.95668e-05
2.55754e-06
2.10453e-05
7.51308e-05
1.95175e-06
8.20471e-05
1.79077e-06
1.86588e-05
1.98261e-06
0.000243189
1.80251e-06
1.69057e-05
1.89962e-06
9.80638e-05
1.84485e-05
1.55191e-05
1.77164e-06
1.96371e-05
1.65518e-05
1.80354e-05
2.16638e-06
1.71475e-05
2.05401e-05
1.71848e-05
1.42866e-05
1.72395e-05
1.77732e-05
1.60721e-05
1.74081e-05
2.27972e-05
2.0182e-06
1.38438e-06
1.50079e-05
1.27246e-06
1.94741e-06
1.92861e-06
2.83228e-05
1.80528e-05
1.54066e-05
1.90095e-05
2.48625e-05
2.11547e-06
2.12496e-06
2.39979e-06
1.68219e-05
1.3491e-06
1.61833e-05
1.73686e-06
1.66428e-05
1.54588e-06
2.05141e-05
2.3011e-05
9.05523e-07
1.49518e-06
1.74679e-06
1.86929e-05
1.71569e-06
2.43229e-06
8.96485e-05
1.59182e-05
1.67285e-05
1.59621e-05
1.95913e-06
1.56397e-06
7.56964e-07
2.33184e-06
2.25081e-06
1.25481e-05
8.51152e-07
1.90325e-05
1.32982e-05
1.20435e-05
1.71229e-05
1.59569e-05
1.77581e-05
1.67299e-05
1.6893e-05
1.92024e-06
1.86721e-05
1.33919e-05
1.84893e-05
1.91262e-06
2.13497e-06
1.73895e-05
1.6175e-05
1.7015e-06
1.87028e-05
1.65615e-05
1.40448e-05
1.3702e-06
1.37739e-06
1.95728e-06
1.81794e-05
2.02963e-05
2.41483e-06
1.71805e-05
1.59958e-05
1.85783e-06
1.84696e-06
1.73226e-05
2.30858e-06
2.43092e-06
1.82379e-05
1.66907e-05
1.74138e-05
1.73625e-06
1.6139e-05
2.07417e-06
2.65355e-05
1.49969e-05
1.33709e-05
2.31976e-05
1.57807e-05
2.02347e-05
1.55205e-05
1.63463e-06
1.4936e-05
2.02046e-06
1.54739e-05
2.00471e-06
2.58199e-05
1.70873e-05
1.60152e-05
1.9404e-06
1.77369e-05
1.63301e-06
1.56853e-05
1.4495e-05
1.72938e-05
1.38871e-06
1.47254e-05
1.79584e-06
4.99207e-05
2.0906e-06
3.51037e-05
2.51535e-05
1.66356e-06
8.81717e-05
8.72773e-05
1.97119e-05
1.90988e-05
1.64554e-05
1.37396e-06
1.56502e-06
1.641e-05
2.57883e-05
1.45674e-05
1.59094e-05
2.21471e-05
1.62993e-06
1.53066e-05
1.62378e-05
1.45681e-05
3.33966e-05
1.37599e-06
1.54842e-05
1.7462e-05
1.50984e-06
1.98362e-05
8.84093e-05
1.46704e-05
2.23263e-05
2.35346e-06
1.46368e-06
1.54076e-05
1.46505e-05
1.35556e-05
1.79577e-06
1.41465e-05
1.66182e-06
1.61944e-05
1.73696e-06
1.3744e-06
1.85969e-05
1.58148e-06
1.46339e-05
0.000197699
1.55155e-05
2.103e-06
1.63585e-05
1.68414e-05
1.70786e-06
2.00296e-06
1.88403e-05
1.88806e-05
1.73104e-05
1.82931e-06
1.61792e-05
1.53526e-05
1.5889e-05
1.63535e-06
1.65378e-05
2.0579e-06
1.40937e-05
1.62226e-05
1.63351e-05
1.4501e-05
1.8638e-05
1.44089e-05
1.65661e-05
2.81192e-06
1.93907e-06
1.55497e-05
1.83769e-06
2.34946e-06
1.43494e-05
1.53464e-05
1.58668e-05
1.51824e-05
1.39672e-06
1.83899e-06
1.64121e-05
1.33926e-05
1.53645e-05
1.62947e-05
1.54328e-05
2.01612e-05
1.81088e-05
1.7835e-05
2.2384e-06
1.93467e-06
1.62884e-05
1.68241e-05
1.39567e-05
2.3286e-05
1.88919e-05
1.41044e-05
1.89824e-05
1.87765e-06
1.69292e-05
2.43821e-06
1.8177e-05
1.76349e-05
1.83267e-05
2.24423e-06
1.58198e-05
1.82633e-05
0.000213545
2.3241e-06
1.88609e-06
1.93981e-06
2.75857e-06
1.87901e-06
2.12916e-05
1.49057e-05
1.80859e-06
1.41033e-05
1.92387e-05
1.8569e-05
1.58095e-05
1.43713e-05
2.0652e-06
1.54939e-06
1.32124e-06
1.86684e-06
1.47824e-05
1.67225e-05
1.87696e-06
1.94009e-05
1.98457e-06
1.89336e-06
1.78935e-06
1.677e-06
1.93602e-05
2.04158e-06
1.54105e-05
1.79053e-05
2.08988e-05
1.53977e-06
1.8132e-06
1.71363e-05
2.05165e-05
1.86946e-06
2.01728e-05
1.29478e-05
1.78413e-06
1.824e-05
1.6891e-05
1.9843e-05
1.40745e-05
1.88659e-06
1.67288e-05
1.64636e-05
1.26585e-06
1.48608e-06
1.94716e-06
1.52698e-05
2.36311e-05
1.62943e-06
1.40146e-05
1.7457e-06
1.46395e-05
1.82784e-06
2.15042e-05
2.16285e-06
2.51063e-05
1.71176e-05
1.6106e-05
1.58484e-05
1.30839e-05
1.596e-05
0.000121174
4.56261e-05
1.40156e-05
2.25954e-06
1.87203e-05
2.23321e-06
1.6151e-06
2.26276e-05
7.44453e-05
9.88139e-07
1.73662e-05
2.01263e-05
1.79876e-05
1.7635e-05
1.77757e-06
1.6578e-05
8.17987e-05
2.50318e-06
1.6248e-05
1.36563e-05
7.7801e-05
1.88388e-06
1.55532e-05
1.84895e-06
1.98561e-06
1.43667e-06
1.85615e-06
2.06702e-05
1.48389e-05
1.85256e-05
1.69014e-05
1.59434e-05
1.94657e-06
1.44486e-05
2.00929e-06
1.43356e-05
1.91854e-06
1.79339e-06
2.31881e-05
2.0629e-06
1.95783e-05
1.68147e-05
1.93883e-05
2.27247e-05
1.63394e-05
1.79839e-06
1.56889e-06
2.04748e-06
1.40521e-05
2.31476e-06
2.0954e-06
1.36629e-05
2.24541e-06
2.10553e-05
2.4294e-06
1.53188e-05
2.48172e-06
1.96601e-05
1.39199e-05
0.000226961
1.60019e-06
1.33413e-05
0.00023402
3.06849e-05
1.654e-05
1.49376e-05
1.97279e-05
1.71357e-05
1.58905e-06
2.00443e-05
1.87544e-05
2.13604e-05
1.80249e-05
1.70014e-05
2.0809e-06
1.39997e-05
2.40168e-05
1.69645e-05
1.85762e-06
2.24805e-05
2.42157e-06
2.21375e-06
1.78972e-05
2.76382e-05
2.72186e-06
1.92805e-06
2.5195e-05
2.90401e-05
2.52293e-05
1.43112e-05
1.63241e-05
1.74679e-06
1.99747e-06
1.75312e-05
1.99658e-06
1.87554e-06
1.70088e-06
2.01376e-06
1.33141e-05
6.3806e-05
1.38123e-05
1.73681e-06
1.59106e-05
1.94477e-06
1.17703e-06
1.52568e-06
1.69697e-05
1.26057e-05
1.5314e-05
1.65609e-05
2.50943e-05
1.72403e-05
2.05199e-06
1.59035e-05
1.3965e-06
1.32963e-05
1.84096e-06
2.15574e-05
1.85976e-06
1.6229e-05
2.01764e-06
2.04356e-06
1.77426e-06
1.62902e-05
1.59663e-05
2.70296e-06
2.03943e-06
1.34612e-05
1.47082e-06
1.33488e-05
1.63497e-05
1.53468e-05
1.65547e-06
1.44924e-05
1.81235e-05
2.56113e-06
2.10808e-05
1.68091e-05
1.76788e-05
1.42993e-05
2.03772e-05
1.48945e-05
1.59125e-05
2.1401e-06
1.45124e-05
1.84365e-06
3.15222e-05
2.32157e-06
1.92713e-06
1.74198e-06
1.38553e-06
2.15767e-06
2.80106e-06
1.81035e-05
1.57481e-05
1.60384e-05
1.99269e-06
1.57979e-05
1.93883e-05
1.66809e-06
1.76779e-05
1.40213e-05
1.74989e-06
2.02763e-05
1.5647e-05
2.13647e-06
1.50553e-05
1.64841e-05
1.63695e-05
1.59855e-06
1.73064e-06
2.70562e-05
1.87296e-06
1.55928e-05
4.07022e-05
1.48352e-06
1.81351e-06
8.38441e-07
2.04356e-06
1.48166e-05
2.02505e-06
1.43918e-05
3.81926e-05
1.95847e-05
1.60518e-05
2.19317e-05
1.93547e-06
1.50768e-05
1.59562e-05
1.98671e-05
1.43689e-05
1.89206e-06
1.71717e-05
1.59145e-05
1.67935e-06
1.48854e-06
1.87084e-06
1.70031e-05
1.74746e-05
1.85805e-05
1.82552e-06
1.85715e-06
1.50577e-05
1.84739e-05
2.07571e-06
1.53021e-05
1.95164e-06
1.58027e-05
2.33372e-06
1.78101e-05
2.01892e-06
2.48159e-05
1.58826e-06
1.64334e-05
1.59777e-05
1.61674e-05
1.85173e-06
2.38337e-06
1.60821e-05
1.63587e-05
2.25122e-06
1.67934e-05
1.03006e-06
2.24724e-05
2.08062e-05
1.9928e-05
1.86135e-05
1.87841e-05
1.53409e-05
4.04692e-05
1.87259e-06
2.32795e-06
1.7942e-05
1.3868e-06
1.77406e-06
2.21967e-06
1.68784e-05
1.58143e-06
0.00032979
1.86579e-06
1.80633e-06
1.26313e-06
1.8033e-05
2.1245e-05
1.59925e-05
1.71134e-05
4.18438e-05
1.6742e-06
1.15583e-06
1.69009e-06
3.64839e-05
1.50172e-05
1.62061e-06
1.57649e-05
3.12378e-05
1.02966e-06
2.16088e-06
1.69981e-05
1.59518e-05
2.84791e-06
2.31225e-06
3.00778e-06
2.17448e-06
1.95306e-05
1.95907e-05
2.37264e-05
1.56292e-05
2.87528e-05
1.69324e-06
1.90605e-05
2.22694e-05
1.79384e-06
2.49062e-06
1.64667e-06
2.27446e-06
3.2199e-05
1.92039e-06
1.91882e-05
2.65467e-05
4.46789e-05
3.78897e-05
1.94219e-05
2.05508e-06
1.73698e-05
3.2652e-05
1.49058e-05
1.55195e-05
1.66257e-05
0.00014947
2.00859e-05
1.46011e-05
1.44775e-05
1.9283e-06
1.68216e-05
1.91113e-06
1.83635e-06
1.7969e-06
2.10567e-06
2.14167e-05
1.58493e-05
2.44247e-06
1.47302e-05
1.85898e-05
1.86481e-06
1.61493e-05
1.57133e-05
2.05222e-05
1.80467e-06
1.68369e-05
1.88869e-06
2.17102e-05
1.4328e-06
1.94311e-06
1.42531e-06
1.42153e-06
1.85202e-05
1.98888e-05
1.61858e-05
1.77361e-06
1.63106e-05
1.59953e-06
1.86732e-06
1.78712e-05
1.50444e-05
1.75294e-05
1.94062e-06
1.87777e-05
2.21725e-06
5.15474e-05
1.96102e-05
2.35516e-05
1.5565e-05
1.72625e-06
1.41041e-05
2.00644e-05
2.09905e-06
1.8454e-06
2.05735e-06
1.9725e-06
2.14738e-05
1.75714e-06
1.70127e-06
2.05828e-06
1.94456e-05
1.83064e-06
1.92853e-06
1.67095e-06
1.77482e-06
2.03494e-05
1.78369e-05
0.000339763
1.60702e-05
1.49049e-05
1.64727e-05
1.64446e-05
1.57441e-06
1.5248e-06
1.66617e-06
1.59793e-05
2.6561e-06
1.57735e-05
2.09779e-05
2.14988e-06
1.55364e-05
2.18824e-06
2.14733e-05
1.93639e-06
2.06236e-06
2.13136e-06
2.50572e-05
1.88366e-05
1.71358e-06
2.054e-05
1.75651e-06
1.50625e-06
3.01282e-05
4.03106e-05
1.9789e-06
2.8879e-05
2.17254e-05
2.52137e-06
2.08972e-05
1.657e-05
1.67786e-05
1.73205e-06
1.90684e-06
1.50375e-06
1.68434e-05
1.29189e-05
1.93563e-06
1.47168e-05
1.70229e-05
1.90592e-06
1.78315e-06
1.30606e-05
1.49505e-05
2.1609e-05
1.59447e-06
1.64589e-05
1.82871e-05
1.93364e-05
1.60608e-05
1.4306e-06
1.72659e-05
1.20649e-06
1.59612e-05
1.32951e-05
1.60888e-05
1.62631e-05
1.84113e-05
1.63595e-05
1.68063e-05
1.96476e-06
1.66062e-05
1.43096e-05
2.11692e-06
1.90643e-05
1.69276e-05
1.63773e-05
7.5304e-07
1.94498e-06
1.71679e-06
1.50086e-05
1.45355e-05
1.93782e-06
1.64997e-05
1.7394e-06
1.56997e-05
1.85567e-05
0.00030422
2.16455e-05
1.66852e-05
1.68877e-05
1.90272e-05
1.89272e-06
1.64894e-05
1.60377e-05
2.05523e-06
1.83089e-05
1.64804e-05
1.71538e-05
2.18944e-06
2.64314e-06
1.52759e-05
1.65566e-05
1.78112e-05
1.4374e-05
2.53191e-05
1.277e-05
1.95019e-05
1.45567e-05
1.83766e-05
2.27621e-05
2.00587e-05
1.68903e-05
1.94759e-06
1.50906e-05
1.63124e-05
1.45702e-06
1.79612e-06
1.84279e-06
1.58576e-05
1.3271e-05
1.77785e-06
1.70581e-05
1.63298e-05
1.34987e-05
1.57818e-06
1.62327e-06
1.70541e-06
2.11936e-06
1.67077e-05
1.32707e-05
1.53222e-06
1.78962e-06
1.63476e-05
1.47445e-05
1.68826e-06
1.198e-06
2.17013e-06
1.67983e-05
2.06851e-06
1.57519e-05
1.86969e-05
1.86786e-05
2.07344e-06
2.14756e-05
1.90348e-06
1.7821e-05
2.17484e-06
1.57096e-06
1.69537e-05
1.85993e-06
1.67991e-05
1.75014e-05
0.000299528
0.000331643
1.6777e-05
1.45436e-05
1.96241e-05
1.93086e-05
2.42406e-05
2.21508e-06
1.81953e-05
1.17284e-06
2.53848e-06
1.65461e-05
1.02329e-06
1.77257e-06
2.01e-05
2.11106e-05
1.08162e-06
0.000139292
1.77033e-06
2.09147e-05
0.000330327
1.43044e-05
2.07709e-06
2.13677e-05
2.05991e-05
2.27956e-05
1.81654e-05
1.64874e-06
1.90873e-06
2.05747e-05
1.79184e-05
1.61412e-06
1.5346e-06
1.71099e-06
1.81423e-06
1.22715e-05
1.94486e-05
1.97365e-06
1.4681e-05
1.73001e-05
1.66364e-05
2.21974e-05
1.63321e-05
2.2484e-05
2.17242e-06
2.05856e-05
1.75681e-06
1.70718e-05
1.90017e-06
2.15115e-05
2.23375e-05
1.59945e-05
1.52108e-05
1.41008e-05
1.68806e-06
1.76249e-06
2.06799e-06
1.92532e-06
1.68932e-06
1.70751e-05
1.41406e-05
3.5187e-05
1.69163e-05
1.48876e-06
4.1605e-05
1.84683e-06
1.58103e-05
2.162e-06
1.76661e-06
1.76383e-06
1.84798e-05
3.05766e-05
3.03371e-05
1.90586e-05
1.51506e-05
1.60052e-06
1.98755e-06
1.63719e-06
2.03999e-06
1.62866e-05
1.74396e-05
1.56564e-06
1.5374e-05
2.16897e-06
6.82088e-05
2.76662e-05
4.74087e-05
1.9012e-06
1.41739e-05
1.61628e-05
1.77068e-06
1.43858e-05
1.5544e-05
1.56359e-05
9.03411e-07
1.77739e-05
1.46803e-06
5.1208e-05
1.08553e-05
1.98825e-06
1.53242e-06
1.42717e-05
1.83511e-06
1.65814e-05
1.24574e-06
1.63838e-06
2.59537e-05
0.000306204
2.43742e-05
5.17018e-05
1.62944e-06
1.73409e-06
1.87303e-05
1.83824e-05
4.70605e-05
1.49234e-05
9.69575e-07
2.69327e-05
1.86055e-06
1.62072e-06
0.000309321
0.000168536
1.90295e-06
1.51327e-06
2.01366e-06
1.64578e-06
1.66412e-05
2.2333e-06
1.65026e-06
1.7185e-06
3.64121e-05
1.74162e-06
1.67182e-05
1.92144e-06
1.95584e-06
4.49965e-05
0.000327306
2.47387e-06
1.94696e-06
1.96429e-05
2.03698e-05
1.44498e-06
1.61976e-06
1.93557e-05
1.78343e-05
2.03138e-05
1.55186e-05
1.70878e-05
1.8776e-05
1.62885e-05
1.57626e-05
1.617e-05
1.90757e-06
1.66874e-06
1.60413e-05
1.37814e-05
1.6843e-06
1.7893e-06
1.81061e-06
1.54359e-05
2.20631e-05
1.60321e-05
1.80487e-05
1.853e-06
1.51129e-05
1.61668e-06
2.07487e-06
1.65488e-05
1.48975e-06
1.47005e-05
1.65407e-05
1.9766e-05
1.81154e-05
1.4624e-05
1.84172e-06
1.78973e-05
1.45152e-06
1.69751e-05
2.1716e-06
1.71594e-05
1.70364e-06
1.53441e-05
2.27629e-06
1.96929e-06
2.19507e-06
2.48252e-06
2.06122e-05
2.12814e-06
1.52588e-05
1.86602e-05
9.45745e-07
1.56214e-06
1.67153e-06
1.82777e-05
1.8e-05
1.49862e-06
1.5885e-05
1.5541e-05
1.62942e-06
1.55368e-05
1.58377e-06
2.0008e-06
2.49693e-05
2.09521e-05
2.0688e-06
1.58485e-05
1.61147e-05
2.23639e-06
1.83203e-05
2.22818e-05
1.70612e-05
1.56043e-06
2.30673e-05
1.44168e-05
1.78437e-05
1.48089e-05
1.73277e-05
4.4191e-05
1.85163e-06
7.32985e-05
2.11022e-05
2.77679e-06
2.60304e-05
3.49749e-05
2.37726e-05
1.54285e-05
2.30844e-05
2.05e-05
1.95459e-05
1.82792e-05
1.84954e-05
1.77731e-05
1.88012e-06
1.69483e-05
1.85364e-06
2.29766e-05
1.92486e-06
1.61803e-05
2.20449e-05
1.77458e-05
1.33664e-05
1.80424e-05
2.06381e-06
1.85326e-05
1.7255e-06
1.70505e-05
1.75663e-06
1.09606e-06
1.82842e-05
1.87981e-05
1.84428e-06
1.4569e-05
1.45624e-06
1.80444e-05
2.17818e-06
1.70433e-06
1.89031e-05
1.54627e-06
1.36458e-05
2.20667e-06
1.57351e-06
2.13066e-06
1.58774e-05
1.61315e-05
1.57493e-05
2.26311e-05
1.83379e-06
1.52509e-05
2.08665e-06
1.58539e-05
1.72748e-05
1.77606e-05
1.84384e-06
1.78547e-06
2.73222e-06
1.56948e-05
1.74903e-05
2.37237e-06
2.50573e-06
1.53017e-05
2.40854e-05
1.63712e-05
1.64234e-05
1.71839e-05
3.59893e-05
1.82233e-06
1.52687e-06
1.71806e-05
1.72904e-06
2.06911e-05
1.68925e-06
2.35097e-06
2.47025e-06
1.72557e-05
1.83121e-06
2.09925e-06
1.67013e-06
1.81636e-06
1.39344e-05
1.42423e-05
1.74841e-06
1.56473e-05
2.09539e-06
1.1389e-06
2.03639e-06
2.42618e-05
1.93434e-06
2.09293e-06
2.13481e-06
1.45776e-05
1.68118e-06
1.47303e-05
1.49702e-05
1.87404e-06
1.67336e-05
1.63571e-05
1.33944e-05
1.59839e-05
1.43382e-06
2.89194e-06
1.76264e-06
1.47008e-06
1.65436e-06
1.41905e-06
1.48734e-06
1.56465e-06
1.67309e-05
2.16779e-06
1.66868e-05
1.92023e-05
1.40712e-05
1.44747e-05
1.55984e-06
1.62902e-06
1.84511e-06
1.51733e-05
1.63916e-05
1.40513e-06
1.80144e-05
1.51275e-06
1.99044e-06
1.73238e-06
2.18389e-06
2.74199e-05
1.65804e-05
1.52899e-05
1.97967e-06
1.86677e-05
2.5583e-05
1.57737e-05
2.02998e-05
1.80767e-06
1.84236e-05
1.85499e-06
1.63655e-05
1.89305e-06
1.54811e-05
1.86728e-05
2.35621e-06
1.7049e-05
2.21972e-06
1.73859e-05
2.4639e-06
7.2622e-05
2.4459e-05
2.11472e-05
1.86179e-05
2.21187e-06
1.64056e-06
2.24675e-06
1.97402e-05
2.05363e-05
1.89469e-06
1.80385e-06
1.86374e-06
1.5864e-05
1.87592e-06
1.50874e-05
1.86398e-06
1.80206e-06
1.76802e-06
1.83035e-05
1.80456e-05
1.80988e-06
1.62627e-05
1.92947e-05
1.71541e-06
1.80272e-05
1.80566e-06
1.49144e-05
2.57598e-06
1.81322e-06
1.67441e-05
1.44772e-05
1.72797e-05
1.70049e-05
2.29068e-06
2.62112e-05
2.63795e-06
2.21398e-05
1.92708e-05
1.62724e-05
1.82895e-06
2.11038e-06
2.26301e-06
1.47232e-05
1.41803e-06
1.97685e-06
1.4242e-06
1.75478e-06
1.60272e-05
1.31469e-06
1.82063e-05
1.78533e-05
1.93529e-05
1.70773e-06
1.4951e-06
1.21098e-05
1.41051e-05
2.11894e-06
1.54009e-05
2.0449e-06
1.84988e-05
2.05611e-06
1.98243e-06
1.60242e-06
1.51322e-06
1.68001e-05
2.02485e-06
1.99337e-06
2.05995e-06
3.52139e-05
1.97323e-06
1.95302e-06
1.41375e-05
1.99961e-06
2.53061e-05
1.93892e-05
1.53459e-05
1.53412e-05
1.40149e-05
1.68198e-06
1.99941e-06
1.82727e-06
2.18529e-05
2.62937e-06
1.81295e-05
1.67796e-06
1.58681e-05
1.54254e-05
1.90224e-06
1.69445e-06
2.06094e-06
1.55002e-05
1.51696e-05
1.57588e-05
4.32489e-05
2.02447e-05
1.5801e-05
1.903e-06
2.07295e-05
2.18009e-05
1.93169e-06
1.72292e-05
1.70938e-05
1.54837e-06
1.66602e-05
2.65348e-05
1.51355e-05
0.000243272
1.58241e-05
1.89833e-06
1.17633e-05
1.5607e-05
2.02332e-06
2.05666e-05
2.13797e-06
2.25621e-06
2.00219e-06
1.40117e-06
1.94842e-06
1.48926e-06
1.58598e-05
1.36148e-05
2.09657e-06
1.22265e-06
3.78925e-05
1.99253e-06
4.65462e-05
1.83044e-06
3.77261e-05
2.08367e-06
1.89781e-06
1.70146e-05
1.95262e-06
1.90247e-06
1.57615e-06
1.59213e-05
1.57461e-05
1.71093e-06
1.44654e-05
1.63584e-06
2.07116e-05
1.82048e-06
1.74958e-06
2.17952e-06
1.59142e-05
2.12495e-05
2.04623e-05
5.03628e-05
1.70627e-05
1.65046e-05
1.76857e-06
1.95166e-06
1.02841e-06
2.26365e-05
1.95141e-06
1.86001e-06
1.74419e-05
1.64857e-05
1.47056e-05
1.96704e-06
2.11033e-05
6.70569e-05
2.53143e-06
1.72729e-05
1.58008e-05
1.93006e-05
1.54261e-05
1.85144e-05
1.45412e-05
1.54088e-05
1.70364e-06
1.39071e-05
1.5031e-05
1.5526e-05
1.27661e-05
1.49848e-06
2.40324e-06
1.65436e-06
2.22883e-06
2.11443e-06
1.70891e-05
1.48307e-05
1.59704e-06
0.000338514
1.48687e-06
0.000223356
1.42167e-06
1.39771e-05
1.40552e-05
1.62699e-05
1.26891e-05
2.33842e-06
0.000228938
2.1087e-06
1.50992e-06
2.06436e-06
2.03337e-06
1.71088e-05
1.6851e-05
2.1735e-06
1.48542e-06
0.000257942
1.74411e-06
1.86277e-06
1.50391e-05
1.76447e-06
1.45468e-05
2.05182e-06
1.48959e-05
1.69927e-06
1.5892e-05
1.26671e-05
1.57411e-05
1.88304e-06
1.5492e-05
1.59681e-05
2.00646e-05
1.49514e-06
1.36365e-06
1.99693e-05
1.53167e-05
1.49467e-06
1.39972e-05
1.75975e-05
1.57031e-05
1.91094e-06
1.71644e-05
1.68023e-05
1.37299e-05
1.6305e-05
2.60974e-06
1.45558e-06
1.70428e-05
1.78563e-06
1.80526e-05
1.8128e-05
1.6977e-05
1.19874e-05
1.68288e-06
1.60864e-06
2.01758e-05
1.51241e-06
1.65321e-05
2.00389e-06
2.01527e-06
1.85138e-06
1.95452e-06
1.65343e-06
1.78692e-06
2.12786e-06
1.75958e-05
2.10516e-06
2.02835e-06
1.58607e-05
1.43676e-05
2.01403e-06
5.31709e-05
1.38992e-05
2.71012e-06
1.60984e-06
2.70238e-06
1.93523e-06
1.59153e-06
2.01407e-06
1.4465e-06
1.69949e-06
2.75302e-05
1.9593e-06
1.7764e-06
1.74648e-06
2.17993e-06
1.54153e-05
1.56864e-05
1.57999e-06
1.57263e-05
1.88252e-06
1.79394e-06
2.09993e-06
1.75198e-05
1.39292e-05
1.44262e-06
1.40047e-05
1.60723e-05
1.70869e-06
1.7691e-05
1.84139e-06
2.2678e-06
7.72676e-05
1.77217e-06
1.52075e-05
2.23934e-06
1.98249e-06
1.41483e-06
1.90526e-05
1.40126e-06
2.72262e-06
1.64086e-05
1.93906e-05
2.64705e-06
2.43912e-06
1.44441e-06
1.96401e-05
1.72626e-05
2.14235e-05
1.64456e-05
1.47866e-05
1.736e-05
2.02996e-06
2.12767e-05
1.91062e-06
1.78664e-05
1.60894e-06
1.66992e-05
2.03995e-06
1.5779e-05
1.43965e-06
1.82394e-06
2.10698e-06
1.66177e-06
1.84548e-05
1.97915e-06
2.01458e-05
1.404e-06
1.46712e-06
1.94812e-06
1.73279e-06
1.44515e-05
2.36665e-06
1.93035e-06
1.3622e-06
1.55085e-05
1.76722e-05
2.00175e-06
1.70915e-06
2.01065e-06
2.00089e-06
1.64911e-06
1.87307e-05
1.68415e-05
1.51535e-06
1.60314e-05
2.18049e-06
1.59057e-06
1.73085e-06
1.90596e-06
2.09825e-06
1.94304e-06
1.86211e-05
1.67864e-05
1.80826e-06
1.76388e-06
1.93648e-05
2.12805e-06
1.68883e-05
2.16783e-06
1.63893e-06
2.63304e-06
1.91207e-06
2.34908e-05
1.75485e-06
1.01801e-06
1.83948e-06
2.06128e-06
1.85172e-05
1.93892e-05
1.52942e-05
1.89016e-06
1.64467e-06
2.64254e-06
1.47157e-06
1.90737e-05
1.90338e-06
1.55966e-05
1.95287e-06
1.39061e-06
1.91817e-05
2.56872e-06
1.5334e-05
2.69554e-06
1.79587e-05
2.62431e-06
1.70644e-06
1.6998e-05
2.02322e-05
1.78484e-05
1.35662e-05
1.21349e-05
1.80097e-06
1.52325e-05
1.61245e-06
2.06721e-05
2.07794e-05
1.87604e-05
1.76872e-05
2.36541e-06
1.53032e-05
2.31222e-06
2.7801e-06
1.6664e-06
1.43612e-05
1.51748e-05
1.34298e-05
1.455e-06
2.1269e-06
1.58055e-05
1.45221e-05
1.85927e-05
6.66972e-05
2.29597e-06
1.99257e-05
2.32724e-06
2.32557e-06
1.70487e-06
1.73157e-05
1.60558e-06
1.87824e-06
1.736e-05
2.35959e-05
2.96064e-05
2.62724e-05
1.5855e-06
1.43761e-05
1.13187e-06
1.57406e-06
2.07829e-06
1.65597e-06
2.73711e-05
2.13954e-05
1.43973e-06
1.48555e-05
1.45061e-05
1.46085e-05
1.57921e-06
2.14897e-05
1.65363e-05
1.86936e-05
2.18351e-06
2.00763e-05
1.42955e-05
1.92733e-06
1.95876e-06
1.80903e-06
1.87694e-05
1.56288e-05
1.50799e-05
1.86001e-05
1.92406e-06
2.01188e-05
2.06367e-05
1.46068e-05
1.74481e-06
1.66425e-05
1.4067e-05
1.9023e-06
1.72169e-05
1.98672e-06
1.64622e-05
1.6852e-05
1.81301e-06
2.01866e-06
1.64527e-05
1.84408e-06
1.72975e-06
1.89106e-06
1.78137e-05
1.63311e-05
1.45649e-05
1.84555e-06
1.60388e-05
1.63254e-06
1.29078e-05
1.89959e-05
2.01275e-06
1.73622e-06
2.08453e-06
2.1971e-06
1.65073e-05
1.61784e-05
1.63145e-06
1.58394e-05
1.4816e-05
1.69893e-05
1.89113e-06
1.94568e-05
2.1711e-06
1.46617e-05
1.32591e-06
1.81423e-05
1.64729e-05
1.59115e-05
1.87966e-06
1.43596e-05
1.72632e-05
2.08506e-05
2.18562e-06
1.68975e-06
1.53412e-05
1.86665e-05
1.63001e-06
2.10102e-05
1.75763e-05
1.99042e-06
1.84575e-06
2.41329e-05
2.07389e-06
2.06144e-06
1.97515e-05
1.70485e-06
1.48227e-05
1.66395e-06
1.95362e-05
1.38901e-06
1.96082e-06
4.34602e-05
1.97348e-06
1.77035e-05
1.86747e-05
5.14426e-05
1.94129e-05
1.64697e-06
1.51708e-05
1.97094e-06
3.11768e-06
1.57573e-05
1.75714e-06
2.0512e-06
1.76684e-06
2.31556e-06
1.52737e-06
1.87544e-05
1.65242e-06
2.08266e-06
1.3617e-05
1.59219e-05
1.8249e-05
1.61144e-05
1.86457e-05
2.71781e-06
2.07112e-06
1.81005e-06
1.48116e-05
1.8859e-05
2.2726e-06
1.80969e-05
2.03283e-06
1.73472e-05
1.91315e-05
2.0688e-06
1.62047e-06
2.0147e-06
1.78483e-06
1.72456e-06
1.9478e-05
2.12018e-06
2.22651e-06
2.07925e-06
1.47793e-06
2.29901e-06
1.60386e-06
2.05863e-06
1.65803e-05
1.6243e-05
3.57888e-05
1.9326e-06
1.35404e-06
1.31187e-06
1.37224e-06
1.46673e-05
9.70125e-07
1.52572e-05
1.67958e-05
1.63812e-05
1.41746e-05
1.53327e-05
1.58668e-05
1.34207e-05
1.8601e-06
1.96366e-06
1.84445e-06
1.89485e-06
1.68312e-06
2.07419e-06
1.92327e-06
1.68649e-06
1.79791e-06
1.25143e-05
1.40977e-05
1.5596e-05
1.85294e-06
1.84547e-05
1.58148e-05
2.44549e-06
1.52909e-05
2.07961e-06
2.10785e-06
1.33115e-05
2.24302e-06
1.99173e-06
1.61102e-05
1.55294e-06
1.88778e-05
1.48919e-05
1.96696e-05
1.98431e-06
2.0134e-06
1.99083e-06
2.11034e-06
2.00084e-05
1.6362e-05
2.20959e-06
1.71008e-05
0.000108433
1.80427e-06
1.46396e-05
1.80614e-06
2.12017e-05
2.07042e-05
1.53091e-06
1.12964e-05
1.35661e-05
1.94116e-05
1.07985e-06
2.06435e-06
2.2992e-05
1.83704e-06
2.01243e-06
1.87912e-06
1.47478e-06
1.85743e-06
1.74892e-06
1.88432e-06
2.04278e-06
1.82652e-06
1.64734e-05
2.84455e-05
1.66731e-05
1.63051e-06
2.05175e-05
1.87118e-05
2.08841e-05
2.11234e-05
1.70585e-05
1.66006e-05
1.66966e-05
2.20438e-05
1.63111e-05
2.16706e-05
2.5398e-05
2.33011e-06
2.07356e-06
1.31494e-05
1.75996e-06
2.51635e-05
1.99418e-06
1.52473e-06
1.59142e-05
1.87173e-06
1.88291e-06
2.39978e-06
1.88342e-05
1.79764e-06
1.80913e-06
1.18164e-06
1.87915e-06
1.57973e-05
1.48237e-05
1.79393e-05
2.46223e-06
1.49513e-05
1.91785e-05
1.75104e-06
2.00808e-06
1.80148e-05
1.16975e-06
2.1589e-06
1.64971e-05
1.53057e-06
1.60287e-05
1.64813e-05
1.61287e-05
2.38236e-05
1.7483e-06
1.39785e-05
1.58059e-05
1.82748e-06
1.67081e-05
1.58629e-05
1.55255e-05
1.73315e-05
1.54787e-05
1.88323e-05
1.53808e-05
1.41529e-05
1.54415e-05
1.31017e-06
1.77101e-06
1.5034e-06
1.78826e-05
1.7215e-06
1.1542e-06
1.53122e-05
2.64874e-05
4.03562e-05
1.7315e-06
1.65364e-06
1.79105e-05
2.60839e-05
2.29207e-06
1.62761e-05
1.64738e-05
1.56556e-06
1.62306e-05
1.5898e-05
1.55495e-05
1.55158e-05
1.7129e-06
1.35489e-05
2.43899e-06
1.84128e-06
1.59206e-05
1.75088e-06
1.55471e-05
1.59163e-05
1.8847e-05
1.8595e-06
1.8861e-05
1.71821e-06
1.99743e-05
1.56156e-06
2.0178e-06
1.71506e-06
1.86564e-06
2.31715e-06
1.45077e-05
1.76253e-05
1.48285e-05
2.14537e-06
2.00838e-06
1.8727e-05
1.45202e-05
1.54079e-05
1.63306e-05
1.89551e-06
1.59144e-05
1.9768e-05
1.74389e-05
1.83904e-05
1.83668e-05
2.08378e-05
1.55611e-05
1.74996e-06
2.42434e-05
2.19772e-06
1.96295e-05
7.47472e-05
2.20427e-06
1.75608e-06
1.44792e-05
1.93052e-05
1.78752e-06
1.83056e-06
1.41192e-05
1.68762e-06
1.32105e-05
1.68015e-06
1.53184e-05
7.47334e-05
1.87007e-06
5.06858e-05
2.21627e-05
1.87507e-06
4.04887e-05
1.60765e-06
1.82544e-06
4.78206e-05
1.67521e-05
2.52759e-06
1.57328e-05
0.000339307
2.47495e-06
2.97617e-05
2.53934e-05
7.24712e-05
2.18152e-05
2.12154e-05
1.04276e-06
1.91801e-05
1.67563e-05
1.70235e-05
2.1937e-05
2.23573e-05
2.04443e-05
2.68118e-05
1.25002e-06
1.38172e-06
2.27824e-05
2.39218e-05
2.33867e-06
2.05883e-06
1.48468e-06
1.49828e-05
1.87635e-05
2.06253e-05
1.85208e-05
1.93538e-06
1.58407e-05
1.76605e-05
2.01377e-05
1.91912e-06
1.41352e-06
1.43594e-05
2.2619e-06
1.62254e-06
2.08944e-06
1.6603e-05
1.86619e-06
1.77094e-06
2.28572e-06
1.59972e-05
2.14284e-05
0.000212825
2.33278e-05
1.34614e-05
1.1219e-06
1.39233e-05
1.48161e-06
1.49329e-05
1.40039e-05
1.42632e-05
1.8949e-06
1.38796e-05
1.73253e-06
1.47159e-06
1.874e-06
1.58712e-06
1.39776e-06
1.38958e-06
1.60375e-05
1.54444e-05
1.85813e-06
1.89599e-06
2.18077e-06
1.41515e-05
1.61641e-05
1.41929e-05
1.61313e-06
2.01959e-06
1.69014e-06
1.91317e-05
2.01805e-06
1.34875e-05
1.95902e-06
1.60195e-05
1.628e-05
1.88632e-05
2.12344e-06
1.6292e-05
2.06401e-06
1.60156e-05
1.65167e-05
2.36133e-06
1.65743e-05
1.56392e-05
2.11017e-05
1.63414e-05
1.60728e-06
2.15078e-06
1.41922e-06
1.79881e-06
1.83735e-05
1.8737e-06
1.99392e-06
2.03412e-06
2.04279e-06
2.53982e-05
1.86233e-06
1.9528e-06
2.52608e-06
1.54884e-05
1.69196e-06
1.75183e-05
1.81888e-06
1.61035e-05
1.84064e-05
1.49576e-05
2.9036e-05
1.89669e-06
0.000141133
2.77747e-05
1.82778e-05
1.85286e-06
4.40004e-05
2.0079e-06
1.54389e-05
2.11945e-05
1.58856e-05
1.77414e-06
1.65767e-05
1.89898e-06
1.99916e-06
2.50915e-06
2.38573e-05
1.66432e-05
1.67165e-05
1.74471e-05
1.76764e-05
1.72862e-05
1.89607e-06
2.22202e-06
1.39957e-05
1.84346e-05
1.92965e-06
1.85475e-06
2.20445e-05
1.38328e-05
1.47602e-05
1.48022e-05
1.5441e-05
1.46419e-06
1.71385e-06
1.30097e-05
1.71412e-06
1.7619e-06
1.58995e-05
1.93148e-06
1.53678e-05
1.49102e-05
1.78007e-06
1.70115e-05
1.63291e-05
1.93585e-06
1.70795e-06
2.05283e-06
1.64273e-05
1.48485e-05
1.53628e-05
1.29393e-05
1.87237e-05
1.57596e-06
2.05927e-06
1.47576e-05
1.63449e-05
2.0975e-06
1.6424e-06
1.60676e-05
1.54566e-06
1.8049e-05
1.40694e-05
1.57238e-05
1.5824e-06
1.63469e-05
2.19871e-05
1.64915e-05
1.25033e-05
1.84297e-05
1.49045e-06
1.53731e-05
2.40983e-05
2.0442e-05
1.98524e-06
2.02133e-05
2.10255e-05
1.69913e-05
1.54277e-05
1.37409e-06
2.08747e-06
1.40433e-05
1.99784e-06
3.24288e-05
1.50269e-06
2.55241e-05
1.51617e-05
1.386e-05
1.67871e-05
2.72717e-06
1.62368e-06
1.49075e-05
3.53137e-05
2.16291e-05
1.97586e-06
2.82799e-05
1.85284e-05
1.60983e-06
1.42354e-05
1.87915e-05
1.65441e-05
2.29818e-06
1.87456e-05
1.46833e-05
2.56307e-06
1.43211e-05
1.88533e-05
1.95797e-06
1.86884e-06
1.75769e-05
2.03521e-06
1.61749e-05
1.57549e-06
1.98655e-06
2.08354e-05
1.68605e-06
1.75835e-05
2.02724e-05
1.55053e-05
1.86565e-05
1.70372e-06
1.92184e-06
1.8452e-05
2.16405e-05
1.91246e-05
2.1042e-05
1.86927e-05
1.73845e-05
1.76421e-05
1.88856e-05
1.632e-06
1.71961e-06
1.74497e-06
1.62504e-05
1.64313e-05
1.58299e-06
2.06023e-06
1.88759e-06
2.40769e-05
1.50093e-06
2.01962e-06
3.53043e-05
2.01588e-06
1.90276e-06
1.7802e-06
2.32897e-05
2.02007e-05
2.3006e-06
2.05351e-06
1.93228e-06
1.61604e-06
1.72217e-06
1.71511e-06
2.65581e-05
1.89762e-05
2.47188e-06
2.05253e-05
2.13091e-05
1.9538e-05
1.53112e-05
1.46378e-06
1.87739e-06
1.71338e-06
1.46206e-06
1.93505e-05
2.30709e-06
1.80227e-05
2.19857e-05
1.60192e-05
2.33775e-05
1.51765e-06
2.37411e-05
1.68888e-06
2.28016e-05
2.05185e-06
3.18673e-05
1.91879e-06
1.81672e-06
1.9313e-06
1.42432e-06
1.67531e-06
1.21716e-05
2.53001e-06
1.43553e-05
1.35749e-05
1.63263e-05
1.4946e-06
2.99916e-05
1.41914e-05
1.97065e-06
2.03405e-06
4.10804e-05
1.59405e-06
1.84883e-06
1.79396e-06
1.63915e-06
2.259e-06
1.44043e-05
1.69463e-05
1.21941e-05
2.02687e-05
1.73593e-06
1.93416e-06
1.74288e-06
1.60965e-06
1.82036e-06
2.02795e-06
2.06276e-06
1.33592e-06
1.88019e-05
1.98632e-06
1.75781e-06
1.43242e-06
5.29422e-05
1.86363e-06
1.87538e-05
1.70772e-06
1.51323e-05
1.27925e-06
1.57453e-05
1.91917e-06
1.55663e-05
1.74744e-06
1.80785e-06
1.4555e-05
2.25676e-06
3.80779e-05
2.36979e-06
1.41033e-06
2.3592e-06
1.69237e-05
2.03246e-06
2.2453e-06
1.73498e-06
1.64943e-05
1.67291e-05
1.64018e-06
1.89604e-06
1.7341e-06
2.29881e-05
2.52668e-05
1.90443e-06
1.25288e-06
1.7349e-05
1.86213e-05
1.40935e-05
2.4548e-05
1.78715e-06
1.45373e-06
1.79885e-05
1.17428e-06
1.97929e-05
2.00883e-06
1.71841e-05
1.52534e-05
1.54361e-05
1.84255e-05
1.80568e-06
1.7464e-05
1.52438e-05
1.74706e-06
1.55671e-06
1.79982e-05
2.22777e-05
1.7793e-05
1.67171e-05
2.24321e-05
1.6209e-05
1.99758e-06
1.68829e-06
1.61904e-05
1.02385e-06
1.7367e-05
1.77319e-06
1.5993e-05
4.1675e-05
1.5591e-05
1.66147e-06
1.45015e-06
1.95135e-05
1.77864e-06
1.62314e-05
1.99146e-06
1.40593e-05
1.5823e-06
1.49681e-06
1.67956e-06
2.76264e-05
2.05251e-06
1.50037e-06
1.41551e-05
1.71294e-06
2.11742e-06
7.90663e-07
1.75424e-06
1.45561e-06
1.98666e-06
1.45216e-05
2.08497e-06
1.59465e-05
1.59527e-05
1.55581e-05
2.05428e-06
1.73153e-06
1.63742e-06
1.93791e-05
1.64921e-06
1.47435e-06
2.03777e-05
1.63717e-05
1.90985e-06
1.81038e-06
1.62215e-05
1.90227e-05
1.5697e-05
1.57493e-06
1.46149e-05
1.40603e-05
1.41231e-05
1.23305e-05
1.62314e-05
1.71245e-06
1.79667e-05
1.77093e-06
1.94269e-05
2.07741e-06
1.75594e-06
1.96701e-05
1.63309e-05
2.1874e-05
1.67754e-06
1.91714e-06
1.92447e-05
1.96553e-05
1.75976e-06
1.48554e-05
4.11067e-05
1.72856e-06
1.50922e-05
1.90126e-06
1.64559e-05
1.60788e-06
1.95696e-05
1.40571e-05
1.65372e-06
2.13098e-06
2.11275e-06
1.53614e-06
1.79062e-05
2.05491e-05
1.97054e-06
1.80091e-05
2.068e-06
1.99982e-05
1.67992e-06
1.82244e-06
1.56712e-06
1.49792e-06