/*--------------------------------*- C++ -*----------------------------------*\
| =========                 |                                                 |
| \\      /  F ield         | OpenFOAM: The Open Source CFD Toolbox           |
|  \\    /   O peration     | Version:  2312                                  |
|   \\  /    A nd           | Website:  www.openfoam.com                      |
|    \\/     M anipulation  |                                                 |
\*---------------------------------------------------------------------------*/
FoamFile
{
    version     2.0;
    format      ascii;
    arch        "LSB;label=32;scalar=64";
    class       volScalarField;
    location    "2/tube";
    object      omega;
}
// * * * * * * * * * * * * * * * * * * * * * * * * * * * * * * * * * * * * * //

dimensions      [0 0 -1 0 0 0 0];

internalField   nonuniform List<scalar> 
5195
(
677.823
565.394
368.732
467.07
525.906
491.05
855.497
239.574
277.634
354.068
476.417
461.668
418.744
337.353
405.668
338.605
142.452
480.303
549.064
636.317
412.19
393.39
407.028
498.51
435.949
412.878
482.118
496.328
282.982
348.088
64.7908
283.684
145.802
472.543
488.193
187.822
587.832
588.615
583.446
529.729
559.649
374.199
431.595
257.322
428.976
416.013
374.791
456.338
381.168
102.907
586.898
93.5066
454.062
456.808
401.781
32.4691
594.768
508.245
391.324
79.9344
346.774
301.301
356.543
287.074
507.903
270.969
693.019
508.954
305.879
262.783
358.706
340.981
262.079
464.835
382.712
335.606
451.262
589.63
385.035
632.426
678.463
493.078
269.605
446.712
557.185
387.808
296.14
420.531
490.784
513.745
382.156
607.935
332.634
656.552
375.692
537.924
318.132
339.097
1010.99
502.25
775.909
244.33
701.638
467.935
87.0164
574.618
393.89
565.257
664.584
755.116
876.219
420.225
422.234
729.637
1087.83
360.006
683.808
545.217
261.581
294.771
263.325
384.441
263.011
547.211
266.521
575.539
272.534
549.848
497.27
263.984
529.539
442.303
263.404
291.044
532.213
559.405
453.317
595.154
377.868
347.52
476.6
259.355
431.594
702.399
731.895
275.322
640.802
495.204
250.366
375.156
502.521
622.439
560.91
439.047
229.318
614.45
565.949
250.11
653.582
314.104
376.413
634.761
622.393
627.901
375.978
423.61
244.523
264.038
331.934
592.237
540.314
483.043
356.805
443.603
252.228
507.781
573.999
641.481
143.653
395.914
199.707
293.453
634.204
87.8986
89.7855
448.924
300.823
397.42
617.678
681.053
390.034
274.185
634.746
629.066
295.204
602.759
656.01
512.483
553.689
237.565
458.801
639.264
336.195
547.538
387.865
87.336
394.013
344.895
358.043
495.593
400.527
677.866
606.958
586.781
373.607
570.011
400.24
513.867
454.639
266.823
640.775
662.953
39.9271
553.972
584.964
357.307
372.061
628.354
564.124
306.121
314.349
481.807
359.404
400.627
302.232
274.08
604.606
388.388
598.221
508.528
381.327
258.883
484.448
268.183
455.706
383.166
442.108
558.737
312.995
395.251
445.831
484.885
326.197
329.694
343.498
580.499
738.724
272.745
655.245
462.068
380.615
345.274
265.226
360.526
377.867
525.219
528.558
269.329
350.967
631.011
318.314
361.184
648.644
378.8
458.46
444.34
548.241
521.349
369.73
470.259
480.014
499.133
368.32
36.9224
438.987
602.243
605.214
336.891
510.386
319.852
456.897
433.837
405.056
399.488
378.858
297.335
433.474
455.953
481.12
532.637
693.157
619.475
341.401
506.196
394.758
511.873
615.188
517.733
606.024
313.202
626.607
601.706
446.324
307.009
441.045
437.846
403.249
329.271
371.81
301.194
578.711
408.134
344.068
269.793
303.732
615.689
534.402
282.283
417.428
556.914
552.673
549.719
348.15
330.014
528.303
382.308
406.86
609.736
353.163
284.866
397.187
308.659
362.635
543.494
278.784
525.618
384.297
64.5273
172.322
642.923
724.395
343.257
359.631
644.439
337.75
102.251
1156.85
258.573
284.287
265.226
368.229
431.336
428.035
93.3782
284.317
282.431
741.869
98.606
417.077
381.088
431.352
582.84
432.952
652.109
392.084
598.175
257.527
383.5
289.706
636.132
376.945
539.918
435.516
606.016
543.81
253.06
610.008
350.789
496.129
337.012
333.346
430.776
615.542
498.707
652.864
729.725
439.93
737.388
648.088
406.759
374.634
383.996
526.204
348.246
378.306
413.256
34.7736
773.414
538.801
26.6626
57.9841
507.572
620.491
387.861
339.827
551.503
345.435
490.813
417.191
353.895
510.111
634.673
638.188
232.845
504.125
514.942
287.637
510.926
696.368
516.043
231.44
460.252
426.662
239.526
221.923
236.89
414.167
556.769
821.446
343.268
286.168
567.022
544.803
692.58
538.509
638.759
115.487
709.148
582.392
544.425
685.062
921.534
771.47
267.634
705.651
442.642
492.159
297.467
254.158
358.562
368.28
690.992
616.456
546.772
341.661
474.784
266.504
426.626
604.269
640.25
435.321
461.161
422.706
683.271
622.844
507.848
529.179
546.112
545.546
619.872
403.197
363.784
433.294
367.818
351.582
376.66
429.382
325.95
573.796
573.386
588.413
594.141
663.508
202.929
465.639
512.447
632.305
752.913
727.328
297.358
365.169
299.389
501.119
627.721
305.321
246.037
544.56
343.53
385.962
542.977
319.042
282.871
510.856
351.556
264.796
356.089
577.887
392.207
219.917
529.291
403.714
171.991
483.434
657.518
1004.54
492.082
416.829
717.825
435.734
179.081
383.057
273.364
309.471
512.41
462.945
391.762
323.21
555.516
400.567
274.902
275.705
675.853
548.201
509.739
271.546
447.657
378.29
478.513
620.593
655.294
358.109
524.251
381.365
672.243
346.206
536.28
491.196
415.571
289.147
575.117
328.609
373.94
374.587
595.856
342.293
324.582
276.921
559.997
252.671
1156.97
241.128
269.03
273.792
471.833
432.962
660.193
174.406
754.289
456.733
420.825
598.394
606.706
527.812
516.483
710.099
23.9289
561.997
414.037
788.086
403.3
267.403
459.55
271.077
172.978
759.107
1087.59
651.281
183.069
392.955
666.316
354.715
213.629
1101.48
423.953
517.684
470.099
442.615
496.205
329.395
590.983
383.114
258.994
319.402
675.236
242.578
422.057
419.864
356.248
655.416
369.903
581.479
566.667
205.166
419.222
342.221
263.198
157.024
178.62
336.734
512.157
423.557
207.188
393.953
487.692
529.396
52.5437
290.985
451.313
443.677
812.798
450.344
536.351
654.677
555.045
434.778
324.245
552.554
375.167
502.837
352.628
498.231
518.397
361.285
285.56
646.588
263.274
545.055
326.75
546.562
737.708
458.51
678.045
384.295
370.938
299.672
502.175
258.117
609.318
416.961
261.053
558.888
275.838
630.589
412.475
476.17
152.506
262.337
318.893
498.92
633.27
661.009
393.524
491.644
539.086
457.649
856.418
254.837
723.287
715.945
392.251
371.444
789.088
669.004
595.843
373.095
386.154
435.903
23.2082
335.346
407.203
336.22
276.863
576.435
568.931
774.683
472.374
310.758
487.646
285.875
488.016
505.531
508.226
264.407
682.263
680.233
531.364
293.7
448.719
470.51
325.036
448.499
724.528
263.997
172.467
499.615
276.92
347.379
486.33
344.852
562.635
363.673
516.731
454.233
784.459
359.298
507.735
711.857
434.137
259.939
531.088
524.403
526.831
498.788
314.175
473.386
447.63
357.358
352.446
477.75
493.477
256.327
620.599
289.323
574.743
281.426
276.558
312.08
289.89
303.443
347.298
280.83
433.933
568.617
273.835
361.377
429.089
973.201
423.362
519.051
381.636
450.756
611.599
519.922
684.881
356.49
270.861
25.9372
404.554
278.655
274.33
269.412
675.044
481.885
569.056
322.947
324.823
271.718
270.232
428.18
420.485
385.173
267.147
305.515
498.833
232.364
518.843
295.269
694.573
321.318
306.561
473.315
313.79
615.222
400.175
265.192
543.72
636.035
651.266
370.244
625.47
423.225
293.252
414.228
472.374
685.426
590.542
461.762
719.263
531.486
522.47
544.987
415.705
354.791
407.399
601.354
677.492
551.859
309.452
621.473
461.042
259.77
254.374
440.357
352.771
846.898
333.049
499.823
540.098
478.223
745.2
378.419
272.086
26.3388
23.7849
387.507
405.888
438.874
278.561
241.904
424.402
343.052
922.744
431.154
381.519
1116.26
685.257
357.551
419.537
1200.05
56.4295
607.883
384.402
23.8626
495.184
534.433
263.675
267.736
245.822
347.97
638.926
748.012
264.08
260.366
721.308
646.345
642.848
448.46
511.286
399.008
617.379
387.472
263.927
383.168
303.16
294.082
297.769
401.042
361.199
688.416
269.162
520.546
351.381
303.447
457.002
472.378
536.653
483.731
658.454
487.075
577.754
604.393
265.082
529.593
192.333
450.816
637.421
170.316
687.069
657.685
413.016
392.52
475.818
396.306
215.079
214.844
258.666
565.459
455.295
538.133
499.729
423.244
687.773
386.969
555.258
326.604
514.871
109.752
261.089
156.808
604.336
580.09
273.179
366.028
572.502
296.664
287.068
937.575
294.786
520.168
143.575
616.488
513.756
632.46
567.259
462.392
265.148
701.828
635.809
309.226
25.7671
327.527
152.928
625.376
632.809
349.932
469.445
155.344
622.881
1147.93
284.45
701.578
683.582
25.4747
46.7658
530.076
500.117
706.039
428.117
447.021
556.455
518.432
661.801
215.732
683.293
380.311
503.598
321.827
157.349
24.0976
463.716
506.224
340.16
330.076
839.875
659.643
345.342
299.187
368.619
351.109
298.813
265.151
267.449
428.022
266.496
702.968
648.551
288.878
603.789
657.508
571.937
409.308
476.16
315.675
280.365
266.501
593.436
481.549
527.702
501.63
273.768
491.463
414.398
268.997
335.626
262.128
412.764
621.65
316.593
716.923
264.597
406.365
355.012
565.784
532.647
349.671
617.907
402.677
408.778
397.129
468.764
531.746
474.979
1238.43
803.374
753.381
338.769
364.365
743.316
375.925
369.857
593.397
354.067
768.895
408.056
313.738
344.714
399.19
403.146
319.726
399.774
373.107
271.279
282.706
735.295
235.934
586.375
408.743
584.682
429.568
171.011
530.341
104.662
361.931
417.442
286.417
51.2276
312.987
332.432
252.857
268.894
286.309
361.142
355.407
367.983
419.045
426.244
383.124
233.633
435.749
355.298
247.021
260.982
578.084
262.291
649.54
383.026
371.199
460.197
610.857
954.915
366.637
252.806
454.022
410.178
559.037
263.111
718.646
711.955
256.455
699.993
574.745
496.684
606.927
397.231
338.862
430.808
556.038
302.968
653.102
595.737
526.772
463.065
438.972
265.889
495.638
527.518
334.315
391.913
382.536
385.948
371.906
311.673
250.609
261.563
336.018
291.722
220.647
574.687
760.094
265.806
457.659
344.762
685.234
469.357
469.775
346.898
646.806
737.656
373.013
677.202
444.49
390.451
604.274
348.125
585.715
1116.02
403.361
294.247
665.485
483.625
604.682
635.559
532.82
419.545
418.173
725
374.271
461.515
679.241
357.513
606.529
357.428
594.138
612.944
564.592
546.081
735.059
545.748
381.764
640.948
379.601
346.621
574.251
533.665
650.378
589.281
492.631
635.102
268.851
628.831
414.743
575.919
634.631
525.104
419.446
278.018
299.454
683.478
727.219
356.691
237.484
361.587
425.521
637.064
359.939
455.189
446.331
525.813
529.773
368.999
327.501
427.778
607.151
356.09
526.166
106.05
264.934
245.14
361.611
340.217
473.832
497.55
346.734
394.476
554.777
545.274
670.929
328.102
538.597
379.433
418.229
736.806
606.601
355.142
423.241
610.287
336.55
353.388
643.147
387.895
835.673
345.869
489.711
577.159
348.46
660.556
352.835
371.967
480.324
224.114
461.341
362.587
391.685
498.04
613.973
512.545
477.407
714.806
453.862
620.178
487.829
428.124
347.975
642.482
320.207
441.254
251.321
405.645
539.947
670.393
681.537
730.484
470.795
711.284
260.274
426.5
761.121
748.269
498.539
388.234
768.689
650.618
658.839
226.212
552.913
733.031
582.11
612.081
230.048
347.739
578.892
302.588
359.778
380.256
526.267
602.833
331.616
456.478
264.673
643.479
388.889
348.309
506.791
685.312
538.441
324.846
486.632
269.772
164.053
436.601
359.944
701.392
343.484
314.772
368.692
386.04
348.107
558.377
270.079
235.36
658.777
25.5477
336.947
754.115
643.503
636.52
552.583
313.629
410.078
311.866
564.596
551.568
612.963
439.335
433.136
506.447
601.506
923.33
189.215
490.566
160.954
517.637
187.879
436.448
661.211
257.635
442.973
564.338
489.981
338.316
541.227
752.355
636.884
628.034
342.253
694.115
528.224
473.1
279.445
344.763
300.045
145.625
392.333
348.155
503.728
596.807
1047.36
339.462
524.174
591.014
249.004
409.246
445.397
479.256
324.255
112.283
502.684
478.427
445.097
409.282
386.278
343.129
506.757
378.642
610.028
381.561
517.815
401.555
689.414
486.928
540.485
652.661
525.885
354.611
516.874
608.615
454.887
23.2994
542.417
35.3094
706.993
357.348
354.387
389.396
626.331
433.059
34.4659
566.955
514.599
546.111
485.939
320.243
275.666
476.15
457.193
30.6075
621.647
517.417
431.435
670.768
490.872
727.144
646.977
487.787
338.135
711.845
551.367
584.93
573.468
499.571
258.375
685.458
872.844
257.224
486.493
594.714
419.964
339.092
557.138
434.661
364.044
283.972
450.869
395.285
347.898
578.127
364.767
666.383
369.486
385.836
412.036
599.301
617.337
824.501
360.149
605.992
351.399
611.391
686.662
410.564
599.992
626.955
598.732
521.124
244.84
686.041
690.495
560.424
578.611
616.892
140.886
585.476
431.556
515.049
516.4
447.043
457.285
452.012
481.312
674.628
230.515
549.713
728.476
433.403
427.532
350.836
370.799
666.087
442.184
385.821
490.818
330.53
364.487
665.574
579.069
446.387
274.281
423.428
358.345
512.3
532.853
99.4228
450.047
461.588
522.966
451.947
566.048
297.123
760.361
307.057
294.688
471.377
459.029
541.831
794.616
366.187
503.699
426.862
263.011
384.773
331.199
692.947
304.487
599.995
340.448
720.392
333.211
676.535
345.054
533.965
644.193
593.349
590.932
390.843
690.125
350.243
688.249
585.928
618.634
596.309
557.885
532.734
514.378
636
350.926
350.936
341.054
571.628
456.349
344.251
561.965
452.254
278.166
757.98
541.92
444.26
734.335
642.81
688.596
634.987
442.843
394.869
364.046
589.017
589.265
345.619
493.829
380.543
425.854
751.179
509.609
535.36
302.851
627.22
866.5
421.416
582.115
424.439
326.881
667.145
509.89
384.036
420.052
494.883
284.652
555.348
514.847
497.212
457.176
298.352
310.16
384.075
452.997
273.279
481.44
792.335
472.026
468.95
297.333
597.633
611.387
526.802
474.284
521.677
287.087
291.037
332.524
259.28
396.716
322.426
346.124
252.64
634.028
580.203
352.847
677.185
459.176
560.422
345.642
418.296
255.719
111.456
378.465
384.576
346.399
739.271
596.57
454.493
625.21
841.771
363.399
317.301
208.883
265.618
526.989
608.678
1139.5
699.629
498.455
593.77
267.087
343.362
714.643
410.582
471.922
426.694
381.322
282.003
396.597
267.259
467.853
303.766
585.52
603.681
608.873
640.035
259.941
296.338
496.112
280.172
675.698
248.214
284.11
377.566
370.353
362.547
407.86
702.439
421.492
711.83
269.347
408.204
647.222
459.432
344.157
624.72
465.824
474.762
433.321
286.57
450.395
472.933
405.072
487.884
621.142
291.71
585.707
743.589
455.323
318.655
412.096
397.39
577.783
486.209
391.338
422.384
476.462
251.36
736.464
417.757
501.166
260.98
477.621
651.914
627.587
371.163
369.26
374.685
700.945
836.53
563.348
257.103
641.894
290.984
456.426
619.699
570.644
257.66
634.754
701.034
417.968
649.298
586.171
737.583
381.282
738.753
776.909
171.466
566.794
367.586
240.839
146.861
346.903
616.133
546.024
767.124
310.987
397.406
603.333
775.599
685.26
394.523
445.075
385.677
554.451
786.799
599.892
269.857
251.361
519.304
236.858
434.065
494.847
541.265
541.64
435.05
416.47
258.303
480.186
435.324
481.672
641.639
444.066
548.575
475.851
632.334
344.454
538.705
398.512
422.601
536.228
458.304
412.54
567.442
277.018
261.739
220.4
446.445
502.692
567.591
695.69
486.812
974.773
313.368
390.291
270.526
495.477
312.158
372.262
656.386
386.357
442.587
598.638
436.809
733.195
477.181
486
490.692
675.247
512.698
368.507
426.205
684.863
260.81
366.024
403.499
592.939
751.307
760.812
651.801
380.433
672.531
292.249
461.014
339.326
481.524
324.358
530.208
397.282
398.612
542.769
350.725
332.857
518.401
255.769
71.5322
786.629
570.75
550.483
262.511
344.929
573.86
482.36
561.4
346.167
1070.28
526.566
260.585
447.273
702.457
798.417
486.549
624.225
609.825
630.498
628.216
517.382
277.863
218.177
386.08
625.217
328.429
265.252
323.559
326.538
287.465
378.525
643.269
296.718
276.458
333.387
243.884
493.458
399.984
710.767
555.261
302.26
578.95
739.268
484.932
514.515
612.944
393.413
273.24
431.516
468.215
562.514
327.059
362.267
511.758
406.976
457.431
599.895
337.808
628.348
535.054
431.139
635.543
512.841
277.746
741.739
315.507
275.245
514.694
237.737
643.688
404.31
342.847
596.225
267.577
271.15
559.142
259.796
385.834
277.657
306.688
419.92
544.798
818.675
472.357
452.666
310.008
414.936
690.694
375.494
303.411
197.06
488.699
475.119
422.305
307.573
453.335
345.967
452.519
696.02
291.17
355.438
363.514
353.202
811.714
605.738
337.952
553.437
352.177
667.948
387.001
272.089
350.487
651.583
395.257
577.748
259.408
499.157
679.517
603.323
420.18
711.468
625.324
453.985
411.143
486.262
673.567
247.023
434.925
360.104
361.415
665.858
359.37
300.304
259.579
359.263
347.461
450.085
579.371
725.951
299.388
557.186
355.992
102.064
561.901
690.297
591.273
423.16
662.941
794.452
699.464
590.22
517.765
402.352
382.433
101.625
597.853
147.354
340.764
654.083
196.43
735.051
533.195
166.024
388.364
518.119
447.454
23.2384
567.203
266.258
237.003
106.439
298.761
379.638
1083.91
382.669
461.375
392.724
361.159
281.092
357.906
299.035
870.882
755.932
242.027
235.383
580.381
582.869
565.861
506.192
257.782
257.377
252.085
501.659
492.308
263.965
251.524
614.205
490.212
635.16
443.115
694.305
637.567
306.372
582.306
584.032
662.827
567.908
260.298
37.0767
324.703
607.586
970.178
609.014
448.793
477.611
410.203
431.593
612.341
468.585
378.006
498.537
504.211
562.902
678.392
561.337
373.637
371.21
618.703
657.429
745.966
436.772
262.618
602.352
540.669
877.192
368.865
299.828
625.747
771.397
567.971
269.269
301.77
253.197
536.258
326.521
485.113
334.991
436.912
596.801
445.17
338.785
334.511
281.993
761.616
368.012
752.603
478.598
348.959
452.737
527.9
685.373
491.742
239.464
496.706
669.265
475.283
376.528
588.526
392.339
691.426
486.011
398.704
606.38
255.911
597.25
55.7712
230.764
410.551
558.419
179.912
510.315
538.91
354.932
349.627
500.305
279.644
470.482
436.777
301.649
299.249
396.871
638.527
626.664
263.419
516.503
662.423
367.444
406.446
399.211
617.186
601.883
354.997
502.419
389.696
550.204
528.632
704.851
611.954
652.231
666.604
504.903
270.065
528.088
325.274
477.493
546.803
374.215
264.303
400.533
483.018
454.039
272.809
567.099
370.569
596.485
395.034
657.032
544.999
381.302
377.769
487.486
656.289
532.659
554.581
268.234
622.428
365.747
508.58
383.44
324.61
347.692
575.855
330.21
631.629
580.478
254.616
323.867
508.865
353.818
329.672
271.081
385.09
686.068
358.874
565.726
690.441
206.556
542.313
244.324
582.353
411.215
274.68
477.211
581.255
563.539
220.733
343.908
541.715
275.332
501.232
531.335
572.346
296.274
289.001
436.682
290.935
426.404
451.917
441.37
291.986
678.136
677.525
467.743
393.782
411.888
574.939
440.928
250.999
656.016
383.707
299.877
339.033
248.471
659.056
509.281
376.651
336.669
249.757
317.999
383.301
248.833
255.074
341.73
541.513
634.419
635.747
366.331
405.847
542.737
541.57
550.608
290.547
501.394
680.605
193.796
470.578
678.845
710.804
288.392
334.291
485.025
483.429
568.202
706.525
647.091
574.16
281.968
425.037
471.382
273.243
271.19
281.787
323.574
511.578
435.939
632.181
561.264
282.482
552.95
394.839
313.172
294.441
239.476
434.922
235.324
490.075
248.335
567.381
204.46
342.115
416.518
560.198
695.981
480.686
560.15
457.167
447.005
555.702
262.464
663.578
210.488
697.411
646.381
378.535
176.944
748.658
546.715
594.663
761.283
470.083
611.006
381.837
712.75
269.574
710.098
543.467
610.285
650.725
435.52
494.883
494.713
557.166
359.533
591.797
437.62
675.709
139.552
529.538
260.823
627.434
392.601
536.959
342.032
599.449
375.981
483.232
692.258
637.005
732.233
187.754
524.886
647.087
490.848
356.19
345.631
665.406
497.208
413.931
408.464
559.99
509.163
523.168
255.404
236.602
310.37
933.511
429.961
375.004
523.477
238.793
733.418
543.602
299.09
914.667
314.692
537.476
383.103
543.163
356.695
423.27
561.866
355.515
640.735
514.527
410.281
356.451
336.252
330.58
377.39
335.645
515.561
607.603
642.301
365.556
1112.14
409.205
696.431
362.869
168.334
266.45
643.524
527.163
320.462
524.695
357.85
719.95
419.355
576.269
505.548
367.551
226.326
447.882
544.671
519.789
484.642
631.774
1295.65
502.483
466.179
525.223
437.059
322.732
371.22
365.145
452.192
538.479
504.789
541.283
305.302
429.394
536.622
318.855
387.808
352.485
756.893
269.072
254.087
391.083
509.973
425.069
410.861
774.962
649.461
364.048
512.149
474.045
531.614
349.742
498.762
711.668
265.825
362.941
317.373
393.911
544.699
418.299
387.546
355.025
416.176
175.326
630.504
527.524
532.887
279.884
526.476
387.77
494.933
521.934
615.567
399.44
723.379
549.072
424.702
409.229
335.003
609.591
252.637
679.819
601.15
771.202
462.963
262.236
545.492
335.233
448.019
268.265
617.004
648.586
262.645
292.514
272.354
284.989
412.772
388.936
608.974
769.607
548.44
263.633
523.427
529.615
265.961
377.606
536.425
538.545
303.165
376.542
798.515
416.936
634.524
646.353
348.656
502.252
424.076
340.564
508.103
520.337
425.498
354.103
469.208
639.639
412.03
386.55
334.416
422.995
393.827
431.716
398.16
414.278
263.448
480.472
482.511
393.426
506.117
428.48
330.995
409.249
586.715
633.008
643.522
334.177
462.683
630.094
561.306
599.993
645.445
470.081
510.93
377.62
279.233
391.19
368.1
603.09
287.503
349.041
679.621
545.324
387.213
441.698
495.494
376.948
346.153
507.37
591.504
343.149
513.241
593.554
382.607
412.659
321.417
314.931
540.694
401.707
405.289
437.295
416.33
399.02
881.016
296.672
419.396
519.815
441.35
711.277
324.544
568.514
755.041
538.755
522.208
325.792
745.745
83.2876
700.415
802.558
379.996
739.351
532.224
679.424
558.983
560.567
499.125
712.073
615.765
571.479
506.569
436.835
515.778
432.55
353.308
552.924
529.083
522.801
509.511
286.643
395.511
712.613
487.534
270.814
280.17
433.422
804.989
580.804
441.298
380.46
634.906
292.296
430.546
617.814
675.811
387.838
618.172
617.292
621.19
447.994
372.486
628.655
668.219
777.362
525.408
601.201
373.864
506.62
381.217
286.267
394.138
545.779
278.159
625.329
385.704
655.869
673.959
496.887
338.018
405.76
523.28
654.624
554.838
350.862
540.822
381.441
253.391
535.123
293.406
440.435
409.203
541.417
677.486
459.855
260.823
588.651
419.635
279.509
540.191
508.459
695.947
391.098
368.288
322.788
280.103
604.811
299.883
518.911
753.857
375.341
599.141
603.589
593.814
585.006
379.389
267.091
583.66
557.125
202.228
546.377
296.337
374.981
456.616
777.454
346.696
541.321
346.015
486.114
398.425
298.715
295.108
316.065
486.249
264.532
664.261
438.488
484.576
26.6315
420.123
354.739
575.42
35.6987
489.897
534.051
326.097
23.2842
28.5833
608.012
238.257
518.625
447.631
274.945
265.261
31.8621
734.511
385.279
355.367
277.014
456.805
313.092
468.557
635.221
461.571
430.836
519.576
1196.53
588.84
341.254
31.7862
435.075
282.643
26.1349
578.964
389.799
453.084
591.556
470.041
515.906
33.6684
452.123
609.956
258.878
589.322
457.728
233.536
468.521
423.51
397.389
275.81
523.549
630.062
373.448
523.342
212.101
621.502
765.622
391.715
398.675
627.593
675.376
558.19
526.043
195.29
426.575
369.394
336.395
351.404
460.085
623.525
297.795
719.641
712.898
568.377
502.549
506.983
371.599
259.473
384.527
658.986
512.062
393.7
584.157
522.199
660.94
615.53
336.623
984.196
376.519
628.643
626.992
23.8323
513.563
58.9762
362.45
666.865
671.779
824.811
406.919
440.145
649.898
615.73
397.685
423.384
270.573
701.329
400.764
270.91
421.461
497.334
658.721
390.014
503.687
549.922
799.598
376.82
477.639
584.062
810.945
484.159
654.427
457.98
256.882
453.86
554.553
358.585
678.746
255.184
736.472
427.525
435.206
330.32
572.105
395.42
469.226
572.537
504.066
503.687
357.837
285.996
253.068
474.86
717.844
610.816
818.665
338.352
741.936
507.718
637.796
513.934
382.518
474.188
340.716
531.196
557.693
320.46
526.346
580.285
333.342
639.679
502.041
519.213
372.516
374.549
554.689
492.613
380.792
431.934
677.604
487.107
558.484
459.979
510.989
44.2147
533.374
706.39
635.893
628.908
221.848
429.656
456.108
212.319
573.446
595.286
456.874
460.932
594.078
448.957
375.269
503.887
489.493
676.119
394.138
298.334
496.608
522.645
380.607
274.517
490.775
380.026
388.791
508.587
559.555
1040.16
591.604
492.31
318.615
358.538
635.437
800.797
262.401
267.954
62.4022
504.963
558.382
531.536
284.635
669.426
272.991
532.17
582.546
668.039
401.182
309.78
507.997
715.198
1087.38
514.924
378.525
762.216
686.912
505.931
743.379
731.294
701.122
294.007
697.407
260.669
256.109
579.123
492.017
719.234
475.468
334.75
554.715
216.281
460.96
424.911
826.201
644.393
401.309
275.379
405.983
287.051
263.944
516.105
326.045
287.485
395.086
693.167
293.13
624.553
586.025
43.2688
53.6597
928.331
1093.66
23.8414
664.252
495.262
78.0874
849.298
590.057
538.637
572.115
645.444
413.737
536.555
320.915
600.001
31.6144
870.883
599.372
695.981
533.55
23.515
600.013
328.657
508.987
573.572
545.63
659.557
390.146
645.011
616.971
383.675
366.039
300.216
459.005
233.99
539.928
692.574
610.591
560.771
572.006
551.76
495.993
658.787
529.072
524.206
262.982
505.643
628.6
659.633
594.12
280.732
595.075
601.936
662.168
883.647
657.727
1187
567.837
557.984
260.69
681.231
489.723
495.801
328.162
610.801
621.645
614.632
388.459
348.032
288.654
347.686
359.406
408.106
342.139
531.658
704.633
600.44
544.643
469.559
501.605
359.939
242.787
574.091
402.62
434.385
654.911
242.743
592.367
587.912
513.636
590.472
250.481
464.843
281.806
552.149
426.376
558.665
615.386
604.185
509.882
783.457
370.448
317.085
501.087
651.066
704.803
223.567
615.41
679.475
395.48
661.783
360.897
739.753
574.363
737.387
657.44
544.472
522.008
402.89
388.826
530.784
565.48
537.99
260.701
553.723
679.047
352.783
613.447
411.928
566.556
782.571
527.699
488.07
553.041
507.091
405.576
291.032
269.6
271.911
481.892
304.931
670.81
650.557
414.031
524.257
337.96
503.07
506.471
504.007
426.346
339.064
255.327
407.559
268.182
706.982
562.014
471.144
217.546
579.221
529.848
1073.68
694.894
521.785
443.747
261.32
264.972
419.223
504.639
390.116
616.081
407.075
547.151
554.018
612.96
627.297
453.378
598.086
441.845
374.74
282.198
628.563
643.001
576.619
530.838
421.353
424.839
674.68
680.584
456.927
316.443
518.39
725.353
705.217
468.541
451.147
318.256
622.885
454.948
351.388
646.816
253.278
611.047
568.169
936.933
641.797
791.052
610.507
700.702
655.214
610.262
693.399
720.695
168.93
689.478
492.483
494.635
414.691
418.992
687.767
621.213
614.248
395.587
590.086
633.138
572.882
327.454
448.335
730.27
143.755
400.228
268.276
508.268
346.595
326.113
353.784
324.291
612.536
425.509
615.946
263.315
266.811
665.231
655.982
481.508
403.181
559.239
497.491
422.967
625.988
382.627
529.045
697.233
550.581
257.92
434.606
469.088
512.772
350.299
443.863
353.827
260.024
422.904
423.194
470.903
597.132
408.972
404.551
576.489
537.636
325.572
507.117
415.417
466.568
355.327
519.381
689.883
553.855
502.596
522.959
370.197
489.513
459.657
658.758
504.046
591.838
411.939
623.683
575.982
312.23
330.691
426.563
470.608
271.013
516.3
428.511
571.495
401.485
606.068
463.088
566.542
474.875
550.7
431.662
494.612
398.408
479.346
443.032
698.019
397.872
481.708
549.122
613.687
429.933
630.384
479.375
481.612
564.081
783.245
486.072
390.843
664.403
557.605
742.42
546.706
727.518
539.359
276.05
438.554
531.727
379.32
564.42
448.345
530.492
634.356
499.454
676.733
507.162
269.169
452.072
721.866
252.595
562.614
419.054
363.167
634.058
646.209
395.205
557.952
520.127
491.183
642.652
763.168
549.845
394.732
392.461
312.002
404.449
856.204
154.87
295.215
154.493
637.044
335.181
337.731
495.257
598.821
343.186
285.797
488.243
583.191
431.399
387.692
503.359
580.964
614.201
632.53
438.881
239.95
678.384
557.275
481.926
389.285
477.614
440.664
414.498
611.071
537.634
536.696
411.305
538.009
719.841
579.367
360.791
553.413
570.333
368.712
301.002
257.873
435.969
339.755
463.869
667.907
307.795
93.4736
465.516
331.825
447.31
425.873
264.715
375.01
512.189
279.415
423.301
268.76
277.381
561.343
336.274
514.528
281.215
484.716
479.705
496.891
336.647
516.96
331.159
274.311
599.965
498.873
269.933
756.628
444.659
524.856
370.068
240.372
583.885
674.523
462.601
520.749
277.091
675.662
391.163
261.913
319.99
601.358
325.105
259.206
551.044
660.403
564.503
448.322
381.61
491.492
487.527
399.366
802.895
524.168
405.666
386.725
439.292
552.98
485.121
371.265
306.831
560.335
357.151
271.575
600.941
474.041
381.356
623.377
296.257
266.833
383.066
293.811
478.845
645.066
428.876
351.119
515.758
500.243
313.787
622.085
516.465
615.181
520.428
412.625
392.118
767.655
475.362
766.762
556.895
551.152
264.637
548.518
485.009
503.392
467.137
503.262
413.384
539.307
394.605
272.465
267.352
491.876
265.019
357.69
528.965
600.851
395.063
373.439
509.998
348.878
412.581
450.304
532.399
622.207
280.365
511.938
513.683
365.545
424.963
690.619
316.69
556.094
734.647
293.415
517.157
505.302
483.544
489.888
565.792
522.72
265.904
453.514
259.786
524.661
544.923
524.722
374.713
582.07
389.307
259.279
505.884
381.035
624.858
573.169
265.028
277.354
513.531
477.347
510.823
379.214
354.563
499.829
269.25
353.097
513.768
267.634
390.208
605.502
241.159
558.787
632.385
525.276
772.037
425.254
288.049
278.106
567.484
676.327
382.173
452.81
629.574
657.18
475.551
605.844
470.554
482.569
475.957
247.852
393.384
827.695
344.706
511.226
504.357
112.626
390.242
525.473
386.544
323.827
267.497
276.649
379.939
614.088
446.838
557.222
626.818
620.337
294.488
349.122
610.717
589.859
268.792
326.703
356.781
347.208
430.656
454.01
297.402
239.821
370.689
362.467
553.184
492.561
749.664
322.908
539.559
518.617
454.719
548.375
480.028
346.727
217.222
561.048
440.482
539.136
254.223
743.246
284.814
341.515
437.557
711.783
479.641
585.897
470.972
596.774
526.563
362.837
678.612
605.634
541.563
417.242
585.484
371.039
257.361
385.444
400.745
248.959
371.43
485.592
425.871
440.506
492.226
377.57
378.361
321.343
380.759
521.291
414.376
360.289
257.939
541.761
307.663
667.087
381.029
729.399
458.26
488.839
478.387
799.287
337.844
329.103
518.186
460.474
701.388
452.1
402.53
396.576
331.251
381.746
353.423
422.316
375.461
595.077
368.872
369.072
420.843
295.257
657.171
616.389
367.477
535.001
346.114
303.234
482.987
191.094
669.608
573.724
369.689
396.327
486.969
416.981
198.439
299.42
433.513
443.31
382.886
245.403
245.374
491.399
266.046
263.961
471.412
247.061
757.489
357.347
550.437
734.658
247.855
373.478
409.947
224.22
400.226
873.354
398.062
432.526
249.937
464.152
457.837
325.086
460.14
174.799
104.67
537.432
185.343
25.3628
511.955
486.604
484.017
600.289