/*--------------------------------*- C++ -*----------------------------------*\
| =========                 |                                                 |
| \\      /  F ield         | OpenFOAM: The Open Source CFD Toolbox           |
|  \\    /   O peration     | Version:  2312                                  |
|   \\  /    A nd           | Website:  www.openfoam.com                      |
|    \\/     M anipulation  |                                                 |
\*---------------------------------------------------------------------------*/
FoamFile
{
    version     2.0;
    format      ascii;
    arch        "LSB;label=32;scalar=64";
    class       surfaceScalarField;
    location    "2/tube";
    object      phi;
}
// * * * * * * * * * * * * * * * * * * * * * * * * * * * * * * * * * * * * * //

dimensions      [1 0 -1 0 0 0 0];

oriented        oriented;

internalField   nonuniform List<scalar> 
9091
(
0.00353539
-6.47294e-05
-0.00347066
-0.00571503
0.000201509
0.00725081
-0.0017373
-0.0137637
0.0141466
-0.00169846
0.00131557
-0.00919358
0.00703896
0.00215461
-0.00417561
-0.00222391
0.00639952
-0.00714321
0.00723805
-9.48346e-05
-0.00133917
0.00308248
-0.00174331
0.00921844
-0.000572195
-0.00142626
-0.00721999
0.000310582
-0.00121085
0.0178837
-0.0169835
-0.000522369
-0.00766859
0.00819096
-0.00836484
0.00606912
0.00229573
0.00325079
0.00691642
-0.0101672
0.00911527
0.000285278
0.00172246
-0.011123
-0.0104795
0.0121581
-0.00167863
-6.4259e-05
-4.62382e-05
0.00812491
-0.00801441
0.000744041
-0.0112235
0.000549078
0.0123101
-0.000856611
-0.0120026
-0.00769664
0.00178093
0.00591571
0.00568087
2.49489e-05
-0.00570582
0.00620501
-0.00639479
0.000189783
-0.00938445
0.000842932
0.00854152
-0.0118247
0.00131791
-0.000822781
0.0113296
0.00881335
-0.00920045
0.00378748
-0.00340038
0.00656375
6.14963e-05
-0.00662524
0.000246786
-0.0113554
0.0119096
-0.000800986
-0.00302724
0.00294338
-0.0117408
0.0110018
-0.00223701
-0.00876482
0.00797458
-0.0114895
0.0123646
0.00205676
-0.00293188
0.00896157
0.0010102
0.000342492
-0.0103143
-0.0102559
-0.000112161
-0.00186855
0.0122366
-0.0195998
0.00152086
0.016948
0.00113093
-0.000388266
-0.0114689
0.0124063
-0.00789012
0.00773209
0.000158035
-0.00687256
3.26959e-05
0.00683986
0.00743853
-0.00963699
0.00203808
0.000160378
-0.00529479
0.000688752
0.00531679
-0.000710754
0.000974024
-0.00415205
0.00338944
-0.00021141
0.00727069
-0.00222815
-0.00504254
0.000311519
-0.00667567
0.00636415
0.0065777
-0.000136041
-0.00644166
-0.0018233
0.0116381
-0.00885548
-0.000959292
0.00927623
-0.0084598
-0.00263973
-0.000495671
0.00104186
-0.00957749
0.00903129
0.000970774
0.00830545
0.00761359
-0.00633036
-0.00830318
0.00701994
0.0118076
0.000801212
-0.00863534
0.00266644
0.0059689
-0.00348437
0.00562905
0.00403545
-0.00618012
0.00309164
-0.00150468
-0.0116993
0.0101124
-0.00407296
0.00409958
-2.66289e-05
-0.00833603
0.0237673
-0.00915698
-0.00627432
0.000167419
0.00687473
-0.00704215
0.00257115
-0.0110904
0.0103639
-0.00184462
-0.0123645
0.0107427
0.00162178
3.48224e-05
0.000723903
0.00247163
0.00279702
-0.00459046
0.00179345
0.00680552
-0.0013232
-0.00655136
0.00106904
0.00176428
-0.0109541
0.00918982
0.00306435
-0.00409598
0.0121691
-0.0111374
0.00247273
0.00170236
-0.00909529
0.0049202
0.00583505
-0.00153478
-0.00919714
0.00489687
-0.0105301
0.00418732
0.00634273
-0.000563716
0.0144386
0.00050299
-0.0143779
0.0122648
-0.00161853
-0.00675464
-0.00389161
0.000311235
0.0127118
-0.00302404
-0.00999904
0.00543447
-0.00010436
-0.00533011
-0.00116495
0.00843805
-0.00928327
0.00201017
0.0143861
-0.0117351
-0.0115513
0.00890019
0.00148036
-0.0131898
-0.00186884
0.0135783
0.00378234
0.00372555
-0.0051867
-0.00232119
0.00445527
-0.0179552
0.0133976
0.000102256
-0.000387823
0.0123106
-0.0132471
0.00132424
-0.00414515
0.00431294
0.00596291
-0.0061307
0.0051117
0.00552277
-0.00816174
0.0118574
0.00283441
-0.0117045
-0.00298728
-0.00937627
0.000343401
0.00903287
-0.00309539
-0.00173471
0.0048301
-0.0168019
0.00295801
0.00683775
0.00700614
0.00201631
0.00507808
-0.000702609
-0.00437547
-0.00101493
0.00728655
-0.00627162
0.00799948
-0.0102233
0.000542332
0.0016815
-0.00410175
-0.00789488
0.00616267
0.00583396
-0.00627499
0.0072659
-0.00143986
0.000448952
0.00818551
-0.000799368
-0.00853747
0.00115133
-0.0157029
-0.00495465
0.019006
0.00165158
-5.62142e-05
-0.00923993
0.00929614
-0.00704066
0.0071324
-9.17379e-05
7.1193e-05
-0.00783946
0.00776827
0.000881627
0.0105785
-0.000948936
-0.0105111
0.00597378
-0.00588175
-9.20309e-05
-0.0110035
0.0097581
-8.22066e-05
0.00132764
-0.00192061
-0.00218114
-0.0121157
0.00081597
-7.86989e-05
0.0113784
9.03224e-05
-0.00608384
0.00599352
-0.0164292
0.0139366
0.000401918
0.00209066
0.00814803
-0.0097544
-0.00108961
0.00269597
-0.00141538
0.00270001
-0.00128463
6.62621e-05
0.00662192
-0.00668819
0.00508746
1.16993e-05
-0.00509915
-0.000278255
0.0118251
-0.0120139
0.000467023
0.00547529
-0.00548024
4.94919e-06
0.00703641
0.000988886
-0.0080253
-0.0119005
0.00127501
-0.00162599
0.0122515
0.00599033
-0.00076693
0.000984456
-0.00620785
0.0118082
-0.00405097
0.00382032
-0.0115775
-6.47604e-05
0.000479008
0.00555146
-0.00596571
0.00564251
0.000258813
-0.00590132
0.00383652
-0.00378437
-5.2147e-05
0.00111171
0.00123489
-0.00234659
0.00953229
-0.00620031
-0.00333198
-6.66361e-05
0.00821467
-0.000869424
-0.00320571
2.17383e-06
-0.00115388
-0.00138221
-0.00529806
0.00548179
0.0152871
-0.0154708
0.00518968
-0.00432149
-0.00173761
-0.000471475
-0.000614257
0.00688916
-0.00580343
0.00956345
6.89568e-05
-0.00822673
-0.00140567
-0.0104838
0.00859108
0.00321547
-0.00132272
0.000759825
0.0117023
-0.0111946
-0.00126758
-0.000606672
0.013132
-0.000717151
-0.00269215
0.00935486
-0.01862
0.0119573
0.00233738
-0.00697948
0.0046421
0.011102
-0.0108257
-0.000883046
-5.55053e-05
0.00544323
-9.88322e-05
-0.0052889
0.000675308
-0.000964661
0.0113914
-0.00652486
0.00657015
-4.52906e-05
0.00616046
-0.00668283
-0.017261
-0.0114506
0.0164912
0.0122205
0.000400803
-0.00655126
-0.000374396
0.00993292
-0.00993193
-9.82173e-07
-0.0112282
0.0033628
0.00925114
-0.00138575
-0.00392301
0.00423824
0.00544242
-0.00575764
0.00695723
-0.000975319
-0.00613626
0.000154352
-0.00586044
-2.71955e-05
0.00588763
-0.00698644
1.00542e-06
0.00698543
0.005925
-0.000552916
-0.00537208
0.0130443
-0.0131623
0.000952685
-0.000834671
-0.00237768
-0.000528643
-0.00960511
0.0125114
-0.00954629
-0.00025218
0.00979847
4.85772e-06
0.0102339
-0.000289897
-0.00712335
0.000706403
0.00670685
-0.00551407
0.00549878
1.52842e-05
-8.97382e-05
0.00500795
-0.00491821
0.0115252
-0.00169563
-0.009071
-0.00075859
-1.48837e-05
-0.00578892
0.0058038
0.00159679
0.00610237
-0.00769916
0.00905461
-0.000258294
-0.000739928
-0.00805639
7.46544e-05
0.0120927
0.00845855
0.000672808
-0.0026754
-0.00645595
-0.000630815
-0.00427524
0.00490606
0.00517189
-0.00102095
0.00161299
-0.00576394
0.000362255
0.00733511
-0.00769737
0.0107513
-0.000250195
-0.0104331
-6.79515e-05
0.00488696
-0.00527288
0.000321163
-0.000833324
0.00734237
-0.00049757
-0.00601148
-0.00859364
-0.000801019
0.00028409
0.00911057
0.00121153
-0.00108379
-0.00533185
0.00520411
-0.0178212
0.0146808
0.00260648
0.000533934
0.0123211
-0.0143827
0.000425219
0.00163632
-7.62217e-06
0.00574916
-0.00574154
0.00103666
0.00493843
-0.00476357
0.00600202
-8.15495e-05
-0.00592047
-0.000461881
0.0133904
-0.000607322
0.00590486
-0.00272694
-0.00317792
0.00126243
-0.00208733
-0.00859642
0.00942132
0.00996619
-0.0101224
-0.000931364
0.00108757
0.000395469
-0.00196933
0.00904231
-0.00746845
-1.40366e-05
-0.0062573
0.00627133
-0.00692928
0.00587276
0.000975549
8.09674e-05
0.00701909
-0.00703104
1.19519e-05
0.0149846
-0.0149235
-4.58681e-05
-1.52639e-05
-0.00223493
-0.000898556
-0.00887301
0.0120065
-0.0113839
0.0102843
0.00154392
-0.000444359
-0.00641104
9.32027e-05
0.00631784
-0.0050425
-0.00226047
0.0016755
0.00562746
-5.83831e-05
-0.0037614
0.00381978
0.00856316
0.00772979
-0.00398286
-0.00901132
0.0102086
-0.00119724
-6.23393e-05
0.000747734
-0.00877081
0.00808541
-0.000517411
-0.0156755
0.0155988
0.000594159
-0.0023057
-0.0017934
0.00409909
0.00462996
-0.013369
-0.00118771
0.0099268
-0.00111416
-0.007722
0.0119004
-0.000488587
-0.0111012
-0.00615603
-0.00259881
0.00469075
0.0119146
-0.0107941
-0.000112042
-0.00100844
0.00570002
-0.000266722
-0.0054333
0.00315756
9.04819e-06
-0.00316661
0.000393785
0.0012762
0.0102446
0.00225052
-0.0154026
0.00256671
0.0105853
-0.00220589
0.0010283
-0.0049681
0.00614569
0.00105862
-0.00555971
-0.000233651
0.00473474
0.000610372
0.00254607
-0.00958414
0.0064277
0.00439278
-0.00223671
-0.00215607
0.00527596
0.000134542
-0.0053471
-6.33975e-05
0.00168117
0.00292501
-0.00239508
-0.00221111
0.00804268
-0.00404522
0.00133455
-0.00533201
-0.00130563
-0.0027526
0.00268324
0.00137498
-0.00689297
4.50912e-05
0.00684788
-0.00578775
0.000819473
-0.000545785
-0.0128015
-0.00118488
0.0147075
-0.000721152
0.00591644
5.6865e-05
-0.00597331
0.00102869
0.0079092
-0.00884098
-9.6912e-05
0.0113038
-0.0104813
-0.00915855
0.00860992
-0.0119226
0.000578114
0.00273459
-0.00247217
0.00257677
0.00678103
0.000124929
-0.00690596
-7.20257e-05
0.00660636
-0.00653434
0.0103966
-0.00971153
-6.79862e-05
-0.00061707
-0.00555707
-0.000854579
0.000645985
0.00576567
8.43731e-05
-0.00283744
0.00478357
-0.0020305
-0.000383351
-0.00656753
0.00695088
-0.00192891
0.00240668
-0.00656986
-0.000224384
0.00679424
-0.00680292
0.0068297
0.0082929
-0.00831969
0.00707357
-0.000560034
-0.00651354
6.22477e-05
-0.00704719
0.00698494
0.00696426
-0.016539
0.00520743
0.00436728
0.00431387
-0.00429855
-1.53232e-05
-0.000464797
0.00495607
-0.00511778
0.000626513
0.0012189
-0.00329142
0.00440473
-0.00233221
-0.00132433
-0.00605547
0.000845492
0.00653431
0.00605914
-0.00624336
0.000184223
0.000197888
-0.0173029
0.0174956
-0.000390651
0.000240936
-0.00204285
-0.0119618
-0.00584328
8.37268e-05
0.00575955
-0.00694795
0.00121369
0.00573426
-0.0206826
0.0066306
0.0155494
-0.00149741
-0.013429
-0.00271544
-0.00453814
0.00786788
-0.00755012
0.000399919
-0.000717677
-0.0103483
0.00884605
0.00150225
-0.00215021
-0.00929239
0.00977534
0.00166725
0.000187272
-0.0123116
0.0122917
0.000644826
0.0103398
-0.00927391
-0.00171074
-0.00102235
-0.00502614
0.00604849
0.00912958
-0.0124035
0.00244787
0.000826028
0.00622487
-0.00625815
3.3281e-05
-0.00569557
-0.00244155
0.00892783
-0.000790704
0.00145385
0.0131963
-0.0128858
0.0028596
-0.00987286
0.00758511
-0.000571848
-0.00481184
0.000176363
-0.00115071
0.00578619
-0.00540916
0.000161441
-0.00557795
-0.00583237
0.0121582
-0.000643571
-0.00568221
-0.011016
-0.00291045
-0.00101476
0.0149412
0.0016557
0.00818433
-0.00984003
3.08883e-05
0.00630595
-0.00633684
-0.010695
0.015293
0.0010673
-0.00566523
-0.0110176
0.00397442
0.00704319
0.000927369
-0.00779236
0.00686499
0.000302851
0.00655023
-0.00034218
-0.0065109
-0.000325846
0.0109494
0.000333811
-0.0109573
0.00188456
0.0103732
-0.00111525
-0.0111425
-0.0119868
0.000658643
0.000633087
0.00222294
0.00610181
-0.00832474
-0.00524303
7.18519e-05
0.00517118
-0.0130073
-0.00192064
0.0134348
0.00149308
-0.000185714
-0.00544042
0.00556986
5.6274e-05
0.00869833
-0.000187796
-0.00143326
-0.00707727
0.000775232
-0.000622299
-0.0111496
0.0109967
-0.000717154
0.000867237
0.0121136
-0.0122636
-0.00121546
0.00135685
-0.0156351
0.0154937
0.0118721
-0.0138635
0.000775915
-0.00632799
0.0138592
-0.0151998
-0.00627673
6.94861e-05
0.00620725
1.49995e-05
-0.00664105
0.00662605
-0.013701
0.000190977
0.0149591
-0.00144908
0.0103645
-0.0193719
0.0167779
-0.00777053
-0.00095896
-0.00583207
0.00628604
0.000504989
0.000663658
-0.0123653
0.0121807
-0.0125251
0.0163714
-0.00271481
-0.00113147
0.00571511
-0.00030339
8.47352e-05
-0.00549645
-0.000784654
-2.68523e-05
0.0119868
-0.0111753
0.00734686
-0.00773021
0.000481039
-0.00575499
0.00534861
0.00827224
0.00021027
-0.00848251
0.000624647
-0.00041563
0.00806322
0.0156047
-0.00136811
-0.000658126
-0.0135785
-0.00750868
0.00734868
-0.00729841
0.000158441
-0.00572611
0.00559654
-2.88737e-05
-0.0152292
0.000224813
0.0151628
-0.00282779
0.00462089
-0.00198344
0.000190337
0.00765919
0.0018731
0.000476106
0.0051807
-0.00565681
-0.000276887
0.00626722
0.0092175
0.00179069
-0.0110082
-0.00365551
-0.0020706
-0.0139693
-0.000669069
0.0123156
0.00232275
-0.00263812
-0.0063707
0.00119482
0.007814
0.000249171
0.0111845
-0.0114337
0.000750251
0.0102281
-0.011474
0.0127112
-0.0123643
-0.000160993
-0.000185949
0.010681
-0.011334
-0.000602664
-0.0121361
0.0121516
0.000587257
0.00998783
-0.00648422
-0.0043722
0.00662718
-0.00225498
0.00697362
-0.00116377
-0.00580985
-0.000188146
-0.0063605
0.00654865
0.0051086
-4.08273e-05
-0.00506777
-0.000367312
0.000111547
-0.00586502
0.00612078
0.00256828
0.0120334
0.00233592
-0.0169376
0.00537701
-0.00541925
4.22428e-05
-0.0141228
0.0140943
0.000300533
-0.000272034
0.0030093
0.00351898
-0.00652828
0.000271641
0.00653352
-0.00680516
0.00481645
-0.00696665
-0.016338
-0.00419092
0.0124694
0.00805957
0.000158798
0.00556812
-0.00572691
0.00704314
3.62318e-05
-0.000238079
-0.00684129
0.00545243
-0.0038655
-0.00452181
0.00293488
-0.00915451
0.00882864
0.0124976
-0.0121718
4.15031e-05
0.0087844
-0.0088259
-0.00774032
0.00778182
0.00192715
-0.0111749
-0.000194366
0.0094421
0.0113896
0.000240609
8.88628e-05
-0.0117191
-0.0105972
0.00819761
0.00239962
-0.0033355
0.024261
-0.00318216
-0.0177434
0.00166316
-0.0021392
0.0036336
0.00256349
-0.00560872
0.00304524
0.000210096
0.0026038
-0.00624152
0.00342763
0.00207155
-0.00614345
0.00615529
-0.0020834
0.000687131
-0.000484872
-0.0136313
4.44622e-05
-0.00559252
0.000532573
0.00501548
0.00663912
-0.0065008
-0.000138314
-0.000413035
0.00165175
0.0106645
-0.0119033
0.00123705
0.0013943
0.00267238
-0.00530373
-1.33517e-05
0.00569422
-0.00540436
0.000780326
0.00462404
-0.00448497
0.0017511
0.00273386
0.000645494
-0.0121326
-0.000499642
0.00877804
0.000888077
-0.00080688
-0.00885924
-0.00043349
-0.00460434
0.00503783
-0.011425
0.0114411
-5.39929e-05
3.79847e-05
0.00583884
0.000529011
-0.00636785
-0.000736271
-0.00505649
0.000424813
0.00536795
-0.00966118
0.0232053
-0.0229316
0.0105649
-0.0108385
0.00930793
0.00340327
-0.00181607
0.0119409
-0.00134677
-0.0107565
-0.0107896
0.00112079
-0.00656881
-0.000258522
0.00570654
0.00295055
0.00745732
-0.00172904
-0.00867882
0.000438174
0.00478896
-0.0048404
-0.00038673
0.0138411
-0.00429997
-0.0140728
0.00453158
1.31933e-05
-0.000958105
-0.0135727
0.0145176
0.0108467
0.00131169
-0.0109686
-0.00118976
-0.00557327
0.000449967
0.00603423
-0.000910927
-0.00524702
0.00530796
-6.09438e-05
-0.00333021
0.0100556
-0.00924842
0.00252307
-0.0114252
0.00227067
-0.0054602
0.00544199
1.82036e-05
-0.0123474
0.0132514
-0.000890829
-0.0110863
0.0086489
0.0108829
-0.00844544
0.00126598
0.00113366
0.00774288
0.00624145
-0.0166765
-0.0160361
0.00539643
0.0183826
-0.00332765
-0.0102851
0.0102773
-0.0137226
0.000125118
0.0128613
-0.00780097
0.000193113
0.00760785
0.00853582
-0.00919714
0.0032296
0.00386834
0.00881266
0.0118187
-0.0102849
-0.00153375
-0.00973043
-0.000506611
-0.00508556
0.000210765
0.00580736
-0.000932564
0.0030081
-0.000236188
0.00853189
0.00903702
-0.00845652
-0.000580498
-0.000126048
0.0127386
-0.0126763
6.37313e-05
-0.00277893
0.0110426
-0.00826361
3.05763e-05
-0.0057714
0.00574082
0.000555313
0.00545329
-0.0060086
-0.00582783
0.00575038
7.7455e-05
-0.0022935
-0.00268713
0.00237477
0.00260586
-0.000301043
0.00513819
-0.00560407
-0.0119373
0.00565374
0.00112457
0.005159
0.00772141
-0.00692787
-0.00343166
0.00749809
0.000972076
0.000120912
0.00561139
-0.00513528
0.00160336
0.000114165
0.0106158
-0.0123333
0.00693655
8.60963e-05
-0.00702264
0.0116091
-0.00122356
-0.00892711
-0.00145842
0.00486181
-0.00494081
7.9e-05
-0.00600233
0.00672737
-0.000725045
-0.00482894
0.0128285
-0.0074978
-0.00050173
-0.000152894
0.0062307
-0.0060778
-0.0110668
0.00963844
-0.00236439
0.0037928
0.0014141
0.0087584
-0.00194358
-0.00822892
0.01684
-0.000346282
-0.0158407
-0.000652975
0.0147393
-0.00204469
-0.000837261
-0.0109725
-0.000328585
0.00933454
0.00196658
0.000532985
0.00555466
-0.00608764
0.00060292
0.00552762
1.57955e-05
-0.00554341
-0.00466307
0.00616392
-0.00119476
-0.000306087
0.00675747
0.00264627
-0.00940373
-0.00518278
0.00516874
-0.00100263
-0.000147203
0.00675759
-0.00560775
-0.000106027
0.00707087
-0.00696485
-0.00986354
-2.20181e-05
0.00099307
0.00889249
-0.00744598
-0.00241756
-0.00231202
0.00557017
0.00175518
-0.00501332
-0.0135877
0.0061417
-0.0120986
0.00120137
-0.0026904
-0.00549645
0.00201309
0.0051029
-0.00161954
0.00193932
-0.000373496
0.000303497
-0.000829808
-0.00502096
0.00554727
-0.000737029
0.0105532
-0.00375665
-0.00605954
-0.00303623
0.00226937
0.00146709
-0.000700231
0.00567712
-0.00679467
0.0012743
-0.000156755
0.00473821
0.000921056
-0.00527022
-0.000389049
0.00228395
-0.00310749
-0.0110663
0.0118899
-0.000535665
0.0152633
-0.0133708
0.00557134
-0.00589718
-0.000178382
0.0133323
-0.0129126
-0.000241295
-0.0086807
-0.000416471
0.000627983
0.00846919
-0.00869201
0.00779471
0.00291751
-0.00202022
0.000179616
-0.0128448
-0.000706941
0.0133721
0.00620777
-0.00675428
-0.000537283
9.25968e-05
0.00590943
0.00483528
0.000708425
-0.00504886
-0.00049484
-0.00902856
-0.00344251
0.0163386
-0.00386748
0.00417737
0.000496667
-0.00611851
0.00144448
-0.0067969
-6.65987e-05
0.0068635
-0.0176398
-0.00678895
-0.000911304
-0.0077694
-0.00545598
8.99929e-05
0.00536599
-0.00711188
-0.00228592
0.00356997
0.0110214
0.00023917
0.000261768
-0.0115224
-0.00909907
-0.00012032
0.00921939
-0.00668766
0.00716323
-0.00047557
0.00929214
-5.89073e-05
0.000308284
-0.00954152
-0.0101264
0.00925834
0.00239719
-0.00152911
0.000307496
0.00981396
-0.000829319
0.00914761
2.10992e-05
-5.34372e-05
0.00644388
-0.00635444
-0.00026782
-3.72129e-05
0.00457172
-0.00453451
0.00759536
-0.00608195
0.0157228
-0.00320488
-0.00643602
0.00660268
-0.000672187
0.00794609
-0.0072739
0.00439708
0.000438192
-0.00184016
-0.00418959
0.00602975
0.00381586
-0.00254173
-0.00301522
0.00174109
-0.00996296
8.43734e-06
-0.000953328
0.0109079
-0.0048062
0.000276811
-0.000220723
0.00475012
0.00594769
-0.000143478
-0.00580421
0.000282582
0.00644329
-0.00632507
0.00533871
5.4595e-05
-0.0053933
0.00158024
0.00522461
-0.00530809
8.34794e-05
-0.00966335
0.000371046
0.000902293
0.00839001
-0.00145314
-0.00348438
0.00575783
-0.000820311
0.00627182
-0.00727422
0.00168667
-0.000684275
-0.00375766
-0.00407578
0.00638029
0.00111658
0.0126783
-0.012865
-0.000929948
0.00257615
0.00787149
0.00713759
-0.0175852
0.00279433
0.00845632
-0.0112507
-0.0108929
0.0109077
0.000980302
-0.000995154
-0.00325904
0.00147829
0.00178075
-0.00395636
0.00342056
0.00150982
0.0019184
0.00253012
-0.00444853
-0.00100372
-0.000191456
0.0164569
-0.0152617
-0.000959493
-0.00557505
0.00653454
-0.012512
0.00698623
0.00810192
0.0032135
0.00269135
0.00625044
-0.00625806
-0.00596086
0.00627238
-0.000237054
0.000729278
-0.00746423
0.006972
-0.00831132
0.00307859
0.0058431
-0.00861424
-7.77674e-05
9.49901e-05
-0.00569641
0.00560142
-0.00437685
0.00445165
0.000363373
0.0064976
4.36144e-05
-0.00654121
-0.00305393
-0.00114162
0.0050429
-0.000847352
-0.00580678
-0.000593819
0.00738989
-0.000989291
0.00218681
-0.00123743
-0.00637717
0.00542779
-0.00586771
-4.56373e-05
0.00591335
-0.0116826
-0.00176551
0.000312356
0.0131358
-0.00263699
0.00211727
0.013098
-0.0125783
0.0017462
0.00655925
0.00923463
0.00268086
-0.00898218
-0.00293331
0.00895831
-0.000487739
-0.00949216
0.00102159
-0.00128118
-0.0132397
0.000798237
5.01912e-05
-0.000123723
0.000463257
-0.00129286
-0.0172656
0.0180952
-0.00413785
0.000722846
-0.00122606
0.00464106
0.00581763
-0.00064095
0.00104819
0.00136141
-0.00461643
0.00325502
-0.0058914
-3.85804e-05
-0.00567644
-0.000235855
0.00152311
-0.0114137
5.3545e-05
0.00774117
0.0018204
-0.00534449
0.00352409
-6.93793e-05
-0.00582202
-0.00175553
-0.00172885
0.00518619
-0.00523694
5.07505e-05
0.0140806
-0.00793893
-0.00444747
-0.0145668
0.00515078
-0.00954176
-0.000496648
0.00982557
0.000212841
0.0046198
0.00149303
-0.00276276
-0.00335007
-5.53304e-05
-0.00410565
0.00416098
-0.00856855
-0.00856178
0.00758857
0.000814363
-0.00851337
3.81158e-05
0.00766089
-0.00602137
0.0088627
-0.00284133
0.00323449
0.00266029
-0.00568468
-0.0101949
-0.0017016
0.00594415
0.00112942
-0.000373992
-0.015915
-0.00153225
0.00968613
-0.00989023
-0.000292546
0.00498379
0.00182173
0.00131729
-0.0110601
0.0126933
-0.0054998
-0.000743858
0.00144959
0.0106919
-0.0163436
0.00420209
-0.00458184
0.000706634
0.0038752
-0.00207227
-0.00552614
0.00759841
0.000559043
0.0121994
-0.0119379
-0.000820533
-0.00515194
4.92421e-05
0.0051027
-0.00920735
0.00934973
-0.0104708
0.0107005
-0.00123335
-0.000153899
-0.00671866
0.00505642
-0.00374079
-0.00131563
-0.00126683
-0.00120163
0.00962896
-0.0058131
-0.00860257
-0.00211173
0.0111202
-0.000405932
0.00507281
-0.00522671
-0.00654835
-0.00824111
0.00784341
0.00694605
0.00907171
-0.000613021
0.000599528
-0.00905822
-0.00872375
-0.00558662
0.0090199
0.00529046
-0.00057039
-0.00644497
0.00729366
-0.0002783
-0.000176968
0.000377998
-0.0152207
0.0150197
0.00671008
-0.00586838
-0.000841701
-0.000975918
-0.00644656
0.00015292
0.00726955
0.00316976
0.00861985
-0.0131203
0.00133074
0.00801556
-0.00777452
0.0157018
-0.0159429
-0.000229203
-0.00608166
-0.000486041
-0.00366613
0.0154875
-0.0016605
-0.00333327
-0.0104937
0.000623462
0.000340278
0.0100617
-0.0110255
-0.00560537
0.00560727
-1.89865e-06
0.00632832
-0.0066028
0.000274482
-0.000157185
-0.00719249
0.00734967
0.000442241
-0.00879484
-0.00131075
0.00543659
-0.0074349
0.00073403
0.00126428
-0.011405
-0.000789432
0.0113718
0.000822631
-0.00217756
-0.00554738
0.00772493
-0.00599856
-5.02741e-05
0.00604883
0.0059179
-0.000153048
-0.00571008
-5.47715e-05
-0.0118833
0.0140612
0.00601308
-0.00723908
0.00710287
0.000136214
2.69991e-05
-0.0105471
0.0105823
0.00543366
-0.00529742
-0.000136242
0.0102047
-0.000770015
-0.00903523
-0.000399414
0.00690545
0.000103605
-0.00700905
0.00645717
-0.00675168
-0.0106311
0.00730086
-0.00216279
0.00245327
0.016621
-0.0169115
0.00368527
0.00175796
-0.00822664
0.00749727
0.000927767
-0.000198397
0.0139173
0.000528221
-0.000604362
0.0144591
0.00320642
-0.00374829
0.0041785
-0.00635269
0.00217418
-0.00816769
0.00982338
-0.00937198
0.00905539
0.00137591
-0.00105932
0.00108868
-0.0122252
-0.00187072
-0.00690228
0.00745021
-0.0201794
0.00612222
0.00660698
-0.00110838
-0.00110012
0.0022085
-0.00201847
-0.0113746
0.00208079
0.0113122
-0.000986022
-0.00871897
0.00972101
-1.60193e-05
-0.00105906
-0.00879055
0.000998155
0.00885145
0.00729144
0.0031778
-0.0114313
0.000962024
-0.00790859
0.0113644
0.000844497
-0.00430033
0.00483677
0.000264924
-0.00570919
0.000607503
-0.0103272
0.00039667
-0.000540268
-9.26598e-05
0.00517366
-0.005081
-0.0010698
-0.00728658
0.00835637
0.00615251
0.0107051
-0.0101181
-0.0067396
7.34291e-06
-0.0057055
0.00569815
0.00606604
-0.00599497
-7.10751e-05
-0.00695959
-0.000152283
0.000185437
-0.00678286
0.000128071
0.00646935
-0.00387281
6.31396e-05
0.00380968
-0.00175612
0.00268789
0.00289029
-0.00641863
-0.000112725
0.00653136
-0.00350342
0.00585461
-0.00235119
-0.000650046
-0.00266518
0.00331523
-0.00805255
-0.0010184
0.00869696
0.000523723
-0.00184753
-0.00790383
0.00922764
0.00612503
6.14777e-05
-0.000206385
-0.00598012
0.0131538
0.00862873
0.000672207
-0.00841703
-0.000883904
-0.00464891
0.00336822
0.00128068
-0.00269648
-2.29882e-05
-0.00330773
-0.00106912
0.00880601
-0.000604122
-0.000211654
-0.00799023
-0.0073234
-0.00593518
-0.00354333
4.30555e-06
-0.00560967
-0.0110783
0.000729602
0.000585955
0.00976272
0.000336038
0.0109597
-0.00248972
0.0012029
0.00133671
-0.00561684
0.0122147
-0.00659784
0.00417529
-0.000209767
0.00159633
-0.00556185
0.00676271
-0.00595785
-0.00280498
0.00200012
-0.000871434
0.00905576
-0.00140092
-0.00650767
0.000378704
0.0109857
-0.000241491
0.00630063
-0.00719306
0.00522692
-0.00688934
-0.013067
-0.00109996
0.000197622
0.0139693
-0.0138605
0.00314004
-0.00524721
0.0159677
0.000426918
0.0056195
-0.000860227
8.32273e-05
0.0205399
0.00143087
-0.022054
0.00421939
0.00507147
-0.00929086
-0.00348895
-0.00777107
0.00437012
0.0068899
0.000646237
-0.0103944
0.00983139
8.2819e-05
-0.00565371
0.00557089
-0.00141713
0.0102232
-0.00880606
2.93212e-05
0.0058389
-0.00586822
-0.00646501
0.0065961
-0.000131087
0.000506164
-0.00977476
0.00925829
1.02964e-05
0.00216335
0.00687368
-0.000886737
0.0165868
0.00113993
0.0226656
0.00419426
-0.00631999
-0.00876068
0.000783255
0.00664565
0.00133178
0.00892729
-0.000459703
-0.0107599
0.0120233
-0.000179802
-0.00108361
0.00822778
-0.00760138
-0.000626406
-0.00102935
-0.00870154
-4.49934e-05
0.00977588
-0.00194686
0.0112102
0.0134025
-0.0125952
-0.00123051
0.000423254
-0.0087511
0.000981668
0.00710363
0.000665802
-0.000435467
-0.00680087
0.00640659
0.000829741
0.00146554
-0.0105759
-0.00114556
0.0149728
-0.00553995
0.0049533
0.00496678
-0.00667973
-0.0039298
0.00564275
-0.00581944
0.00623126
0.00487023
-0.00528205
-0.00471559
5.2523e-05
0.00135714
0.00548142
0.0005083
0.000357193
0.00628192
-0.00525866
0.00504119
0.000217473
-0.00656256
0.00014393
0.00636724
0.00154196
0.0181441
-0.00234357
-0.0176054
0.00180488
0.00585859
0.00112356
-0.00620624
0.0094783
-0.00169174
-0.00778656
0.00130631
0.00617799
-0.00160712
-0.00587719
-0.0141495
0.0142938
-0.000250348
0.00853982
-0.00752947
-0.00101035
-0.00571112
-0.00152616
0.00121572
0.00602156
-0.00845458
-6.05967e-05
0.00846265
5.25234e-05
-0.00113321
0.000684038
0.015422
0.00580422
-8.91119e-05
0.00161516
0.00849123
-0.00917326
-0.000933117
-0.000773623
0.00553214
-0.00475852
0.0133208
-0.0141404
0.000206643
0.00365747
0.00113148
-0.00536322
0.00531104
5.21788e-05
0.00560583
-0.00700782
0.00140199
0.00500846
5.85619e-05
-0.00506703
0.00112093
-0.0013144
0.014169
-0.0139755
0.00681313
0.00504474
-0.00889987
-0.00267178
0.00402809
0.0116925
-0.0130488
0.00711457
-0.00623294
-0.0115499
0.00648729
0.0057358
-0.000673196
-0.00594632
0.00590111
4.52135e-05
0.00702547
0.00980291
-0.00828243
-0.00145152
0.0074905
-0.00166755
0.000382062
0.00192096
0.0103095
-0.00242759
2.52982e-05
-0.00630029
-0.00730334
0.00964573
-0.00345655
0.00569333
-7.30055e-05
-0.00562032
-0.00962973
0.00592614
0.00141009
-0.000465797
-0.0124216
-0.00653825
0.0137742
-0.00677601
-0.000459981
0.00529544
-0.00559071
-0.00845583
-0.0037487
0.00470726
-0.000958557
0.00482157
0.000694453
-0.00500101
-0.000515014
-0.0112966
0.0109304
0.000326472
3.97576e-05
0.0086931
0.000935863
0.00241342
0.00220638
0.00295954
0.00266951
-0.0045664
2.01701e-06
0.00456438
-0.0121287
-0.00134203
0.0112959
0.00217481
0.00506122
-0.000323013
0.00476319
0.00989733
-0.00080691
-0.00909042
-0.00905264
0.00924321
0.000730489
1.89701e-06
-0.0058013
2.06022e-05
0.0057807
-0.000295773
-0.00561635
0.00591213
-0.00979119
-0.000965291
0.0021818
-0.00715143
-0.00233371
-0.0032315
0.0098175
0.00305973
0.000421043
0.00198038
0.0014472
-0.00934477
0.000525057
-0.000552268
-0.0110537
0.0138732
-0.00133921
-0.00263041
-0.00632386
0.000727629
0.0192473
-0.0098151
-0.0039883
-0.00544392
-0.00564439
-5.11778e-05
0.000107962
-0.00575235
-0.00497066
-0.000155413
0.00512608
0.00638667
0.0042365
-0.00415782
-0.00646535
-0.0129087
0.00719149
0.00571716
-0.00121805
-0.00560974
-0.00148353
0.00191256
-0.0198098
0.00128735
0.0166099
-0.00435692
0.0111144
-0.00163225
0.00217696
-0.00511364
-0.00328725
0.00840089
0.00281669
0.0087784
-0.0101305
-0.0014646
-5.40388e-05
0.00533
-0.00576429
-2.34634e-05
-0.00742671
0.00755038
-0.000123675
0.00114996
-0.00903445
0.0100538
-0.000556125
0.00709989
-7.46084e-05
-0.00702529
-0.00283062
-0.0169708
0.00337231
0.00884598
0.00108694
-0.000404715
0.00325878
-0.00285407
0.00424029
-0.00261544
-0.000785142
-0.000839711
0.000547524
0.00150694
0.008646
0.00666407
-0.00714894
-0.00100955
-0.000888379
-0.00300626
0.00490418
0.00159381
-0.0148513
0.0117088
0.00154869
0.00829571
-0.000342766
-0.00795294
0.00534107
-0.00954171
-0.00299242
0.00106895
-0.000408697
-0.00522111
0.00456086
0.00245037
9.02306e-05
0.011606
-0.0043545
-0.000372875
0.00472738
-0.00642434
9.63508e-05
-2.74316e-05
0.00434018
-0.00431275
0.000447524
-0.0109955
-0.000241618
-0.00118804
-0.00400468
0.00218594
0.00300678
-5.82893e-05
-5.73004e-05
0.0130269
4.16143e-06
-0.0129737
0.00970432
-1.63884e-05
-0.00256334
-0.00673137
0.00929471
0.00649463
0.00270642
-0.00336392
0.000368721
0.000288782
-0.0052905
-4.16964e-05
0.00509514
0.00707218
-0.0115717
-0.00359821
0.00809769
-0.00827504
0.00252356
0.00575148
-0.0049271
-0.00600288
0.00848843
-0.0141561
-0.000107361
0.0141992
-0.00867688
0.0103804
0.00818513
-0.00472108
0.00543538
-0.000714302
-0.0107935
0.000294379
0.00499936
0.000685716
0.00428106
0.00101849
0.0101767
-0.0105718
0.00109758
0.00440272
-0.00118642
-0.00910846
0.0101727
0.000587515
0.0132983
-0.00824556
-0.000710007
-0.00434273
-0.0129468
0.000221851
0.0134263
-0.000701394
-0.00106288
-0.0100244
0.00071464
0.0103726
-0.010992
-0.000133177
0.0100623
0.000163495
-0.0100468
0.00988327
-0.0114056
0.0098452
-0.000789203
0.00234957
0.0101626
-0.010787
0.000964686
-0.00698749
0.00281188
0.0127983
-0.0122397
-0.00236744
0.00180883
-0.0128864
0.00182392
0.0122797
-0.00121729
-0.0131642
0.00977657
-0.00718552
0.0105732
-0.00152901
-0.00420888
0.00654626
-0.0051962
-0.00168018
0.00687637
-0.0104883
0.0110496
-0.000278729
-0.00508045
0.00491806
0.00191354
-0.00175115
0.00539826
-0.00536546
-3.28029e-05
0.00637735
0.000438381
-0.0066303
0.000138452
0.00474851
-4.12466e-06
0.00966705
-0.00963798
0.0114005
0.000976209
-0.0016994
-0.0106773
0.00100297
0.00122666
-0.00641159
-0.0086023
0.00637855
-0.00164014
0.000285531
-0.010051
-0.00142569
0.00101727
0.0102536
0.0110766
0.000295963
-7.43267e-08
0.000577646
-0.0039252
0.0037448
0.000661447
0.00998909
-0.012768
0.011943
0.000408936
-0.0121104
-0.000241563
0.000518007
-0.00836861
-0.000717949
0.00179923
1.89055e-05
0.0105844
-0.0124025
0.00816666
-0.000123981
-0.00866828
5.40399e-05
0.000950665
-0.0101358
0.00939096
-0.000205799
-0.00122779
0.00679755
0.004989
-0.0105588
-0.0204664
0.012335
0.00399638
0.00413501
-0.0062366