/*--------------------------------*- C++ -*----------------------------------*\
| =========                 |                                                 |
| \\      /  F ield         | OpenFOAM: The Open Source CFD Toolbox           |
|  \\    /   O peration     | Version:  2312                                  |
|   \\  /    A nd           | Website:  www.openfoam.com                      |
|    \\/     M anipulation  |                                                 |
\*---------------------------------------------------------------------------*/
FoamFile
{
    version     2.0;
    format      ascii;
    arch        "LSB;label=32;scalar=64";
    class       volScalarField;
    location    "2/tube";
    object      T;
}
// * * * * * * * * * * * * * * * * * * * * * * * * * * * * * * * * * * * * * //

dimensions      [0 0 0 1 0 0 0];

internalField   nonuniform List<scalar> 
5195
(
496.47
483.79
487.129
488.92
497.479
483.369
499.265
498.844
496.502
491.886
493.254
490.144
489.458
493.927
491.972
494.311
499.781
490.6
488.085
489.048
489.766
493.232
499.506
486.245
489.883
493.025
492.73
492.614
487.382
487.779
499.973
497.147
499.732
494.281
489.867
499.583
488.2
499.173
488.118
489.516
485.462
494.037
493.256
495.054
492.865
489.786
494.016
496.305
499.876
499.924
497.882
499.952
483.989
490.776
487.279
500.002
499.252
491.075
487.161
499.976
486.542
490.536
486.627
487.082
490.393
493.179
488.133
490.295
487.698
493.862
485.096
489.014
488.768
486.343
486.471
499.328
489.517
485.574
490.525
486.102
496.854
495.68
499.838
499.434
489.677
498.434
499.386
495.042
482.718
494.036
491.992
487.517
494.247
498.67
491.902
484.209
493.241
489.152
484.577
486.943
489.532
495.406
489.896
491.034
499.975
490.315
491.987
497.917
494.225
498.14
484.431
497.742
488.553
498.192
482.528
492.423
498.337
489.468
494.372
492.077
492.24
492.055
490.156
484.637
493.917
486.851
493.755
483.605
490.682
488.265
483.998
486.762
489.093
488.164
486.263
488.734
492.74
496.97
496.151
498.761
493.444
494.304
490.198
489.157
493.308
490.992
490.624
491.251
495.629
492.05
498.119
497.664
486.062
488.934
498.83
498.028
485.824
498.431
494.884
490.682
490.525
488.778
495.406
495.322
490.412
484.789
498.858
495.215
493.728
494.577
488.319
491.294
488.625
489.501
494.775
489.234
497.417
497.297
499.76
497.714
499.597
499.491
499.053
499.96
499.973
493.487
485.242
495.873
488.099
484.58
495.886
489.942
486.85
494.124
485.143
499.292
492.963
499.405
493.848
500.051
493.141
489.546
491.122
486.078
492.268
499.962
486.92
499.635
484.95
494.479
493.507
489.212
499.644
485.263
484.787
490.268
491.041
486.349
491.885
493.452
483.952
486.947
499.999
484.34
496.086
488.848
487.142
487.196
494.653
487.479
487.43
494.622
486.805
486.353
487.074
487.516
484.719
489.297
495.075
485.755
487.659
489.271
485.138
493.963
484.471
486.749
493.032
483.829
486.171
486.355
490.88
494.167
486.365
487.195
485.791
486.944
495.465
487.028
484.767
487.563
494.32
485.865
497.256
495.775
492.391
491.683
486.397
488.636
491.881
491.849
499.131
495.529
490.734
496.403
484.817
490.68
494.892
495.064
487.907
495.359
495.062
494.343
495.405
499.998
497.192
497.468
490.016
496.831
494.032
498.531
488.86
488.152
492.969
488.206
495.352
490.78
493.335
496.624
488.79
488.395
486.416
488.765
491.817
486.698
496.658
492.29
488.576
484.962
498.973
491.77
495.925
488.504
499.407
488.519
488.35
487.656
497.597
498.199
488.078
489.336
485.632
485.009
485.39
486.975
487.515
491.685
482.873
487.072
484.704
488.02
483.479
498.299
485.8
499.922
483.11
490.006
484.726
491.157
487.085
489.643
487.923
499.872
486.891
483.371
488.691
483.524
486.359
499.982
499.986
484.284
489.487
488.616
488.035
484.574
499.725
499.93
499.768
490.371
489.346
490.35
493.314
487.595
490.495
499.95
489.305
492.371
489.655
499.936
489.475
489.256
488.149
486.095
485.62
493.427
500.047
490.854
494.733
488.834
492.073
496.935
490.868
487.574
490.734
488.697
490.159
497.841
493.955
496.513
489.747
491.969
499.239
492.498
490.912
488.443
494.14
493.88
490.5
494.1
490.619
492.257
492.867
492.655
498.747
493.318
493.649
485.585
500.005
497.823
483.628
500
500.539
492.468
496.746
488.61
496.291
483.723
498.1
495.587
493.058
495.395
495.582
494.995
497.857
498.481
484.323
496.072
497.163
495.407
489.034
493.792
498.844
495.412
490.438
498.775
499.091
498.769
489.447
496.61
495.466
488.375
487.307
496.259
496.838
497.354
497.412
497.223
499.872
497.229
493.077
483.788
493.009
499.913
484.996
489.168
498.878
487.712
499.302
499.729
488.203
488.229
487.919
483.688
499.137
499.405
498.573
496.529
487.915
484.414
487.563
488.137
490.155
484.642
492.309
493.516
482.061
490.5
484.468
498.331
487.66
487.7
490.948
494.696
492.742
499.58
487.619
493.323
490.708
494.033
498.277
495.379
497.943
487.483
482.459
499.284
492.472
499.436
487.235
499.269
487.33
493.147
495.778
491.433
499.744
494.706
491.437
495.921
487.714
485.436
490.037
485.931
490.684
491.592
490.85
487.164
488.824
488.685
486.636
487.897
498.721
485.9
488.213
499.642
489.998
491.135
484.297
497.289
487.116
486.86
491.131
499.55
498.278
487.344
494.777
484.41
484.934
491.072
488.064
496.358
487.327
487.191
487.103
487.53
487.228
492.656
489.183
485.592
494.094
490.915
493.204
494.664
492.214
488.872
492.481
493.008
493.491
493.294
491.434
487.507
499.448
486.561
487.076
486.394
486.176
495.258
494.521
486.655
487.006
488.185
487.653
499.2
497.598
497.024
497.233
495.109
495.495
492.807
499.645
493.468
496.69
487.959
492.995
493.673
493.652
485.861
488.314
500
494.547
483.889
482.662
490.117
497.621
491.856
487.186
499.674
481.258
481.79
481.753
499.55
490.535
487.872
493.145
499.329
499.734
497.247
497.309
495.64
492.648
494.46
494.811
496.051
493.976
496.782
498.421
487.64
499.4
490.473
493.495
498.019
490.852
496.963
485.216
495.34
499.317
489.288
491.836
499.1
499.698
499.54
496.073
490.12
493.175
499.338
489.247
494.249
493.865
499.99
487.993
484.241
484.915
493.158
485.122
482.698
485.675
494.629
491.734
493.837
494.003
491.743
488.922
493.749
489.728
496.59
493.305
488.181
490.479
490.979
493.962
498.602
483.261
491.718
489.334
488.679
489.423
489.252
490.917
490.478
488.617
486.272
494.859
494.123
490.219
493.745
488.564
499.824
498.326
499.987
496.802
498.664
494.105
495.756
497.679
496.784
497.252
499.524
499.432
490.321
497.58
496.44
497.372
490.244
498.81
489.118
489.822
497.705
486.48
499.813
499.674
500
486.514
491.599
487.053
491.383
485.197
485.601
490.507
485.705
492.97
484.574
496.544
490.639
490.614
490.804
497.662
492.639
488.835
495.244
493.543
492.623
493.118
493.247
486.678
498.912
500.05
499.625
485.192
500.056
499.025
496.289
494.299
491.519
487.129
482.639
491.177
483.788
487.039
483.347
488.807
490.542
495.201
488.788
485.395
483.84
490.015
491.146
487.789
485.891
493.063
486.32
485.635
486.271
489.018
483.912
486.8
484.783
486.863
487.999
487.359
492.572
492.268
486.623
489.303
484.561
498.159
489.162
492.782
487.969
483.985
484.414
487.042
486.769
487.076
484.583
486.126
497.689
488.904
489.5
500
496.611
489.405
489.279
489.158
490.857
489.843
489.523
488.796
493.134
491.929
488.746
493.511
492.722
485.823
486.799
486.469
484.204
498.674
484.211
491.959
493.786
487.315
497.633
495.408
492.426
483.777
487.436
489.319
486.715
497.56
497.321
489.135
484.838
487.744
492.682
489.494
485.165
488.268
486.454
491.714
487.659
487.624
487.887
488.903
490.558
492.619
492.508
486.852
483.08
488.636
492.276
488.123
484.069
495.363
495.476
489.216
492.082
492.295
495.731
491.638
492.423
492.648
493.834
492.574
495.138
500
500
493.952
493.495
497.871
497.152
498.468
493.304
495.27
499.908
492.411
495.606
499.701
494.349
496.648
492.717
499.353
499.99
499.219
497.16
500
486.857
485.609
497.285
497.446
497.669
491.43
499.397
491.995
497.443
493.998
484.818
485.041
483.979
486.994
486.36
496.664
484.261
485.998
489.052
491.914
497.474
492.608
497.725
496.204
499.223
493.844
493.37
493.497
492.625
497.521
484.294
483.971
483.055
484.976
481.581
497.789
497.466
498.073
493.358
488.254
499.456
498.259
485.231
499.63
487.041
488.973
484.279
485.099
491.225
484.303
499.238
499.204
496.426
497.912
483.959
482.206
484.79
487.872
489.312
488.141
485.992
488.196
497.501
499.899
499.549
499.779
487.605
481.918
487.936
485.495
487.148
491.687
491.702
483.495
485.7
488.854
499.836
483.393
489.304
484.528
483.563
483.991
486.778
485.813
499.106
500.05
500
497.179
499.985
499.144
499.044
497.359
498.795
499.782
489.598
499.747
499.728
491.249
499.293
499.999
499.995
498.839
484.027
491.911
487.745
488.048
488.564
495.049
484.104
499.955
495.846
496.205
497.584
489.895
499.706
500
497.479
496.532
497.901
498.132
498.826
496.138
497.783
485.707
484.099
485.792
489.698
489.146
490.423
488.234
490.573
494.982
498.485
490.386
498.861
498.161
488.035
487.125
486.706
493.671
490.524
491.924
486.239
490.93
488.05
489.173
490.71
490.584
491.77
490.736
492.079
493.739
490.509
493.567
487.773
499.464
488.676
493.163
497.024
482.456
494.399
489.165
498.497
495.468
494.182
494.677
493.787
499.851
498.853
499.923
498.711
498.445
496.292
496.111
498.212
489.141
489.309
498.414
488.507
498.194
489.107
499.811
489.465
489.182
489.136
487
493.941
495.416
497.143
488.117
498.602
497.996
498.998
496.234
498.327
495.562
499.782
499.224
499.918
499.303
497.492
499.586
500.727
499.175
488.201
497.767
497.489
497.257
496.192
496.341
492.395
484.863
490.428
485.204
497.979
492.203
494.339
497.751
495.615
488.223
493.669
494.334
496.266
489.62
488.946
484.328
481.734
493.032
495.684
491.602
493.529
485.689
487.812
489.544
483.491
495.696
488.397
483.23
491.24
482.927
496.666
493.188
496.165
484.432
497.723
490.267
494.819
483.833
493.438
495.983
495.617
484.865
489.12
484.03
486.19
493.865
484.243
483.936
486.987
498.588
487.664
487.632
489.946
500.026
499.182
498.266
490.64
492.969
499.125
484.699
492.618
493.115
489.017
493.171
488.498
488.408
483.963
490.107
489.59
486.856
488.631
497.646
499.17
489.815
498.141
487.907
486.709
489.134
485.556
490.23
491.781
491.736
486.572
491.924
492.777
498.419
493.742
492.928
496.475
497.28
492.528
483.377
483.244
483.909
483.881
496.414
492.441
496.404
497.684
486.219
487.276
496.203
486.02
485.179
495.24
491.362
487.922
489.56
487.883
494.846
489.813
498.514
499.692
492.036
487.019
486.752
493.686
498.705
493.425
492.075
488.281
495.568
496.2
492.398
495.561
490.426
496.987
494.728
493.957
494.356
497.348
495.986
499.95
498.624
497.267
493.74
493.292
490.712
496.57
492.124
490.691
490.1
485.012
482.155
487.169
490.454
485.434
489.272
496.989
499.252
493.686
490.999
499.01
494.351
497.472
497.92
497.105
495.109
487.745
495.044
495.247
488.812
492.973
497.28
497.241
495.598
498.559
494.252
500.139
496.448
494.071
493.603
496.13
495.412
491.769
486.304
483.308
484.658
487.651
486.028
483.452
486.364
489.011
495.967
488.209
489.141
483.247
492.266
486.752
490.093
487.737
494.754
491.808
491.905
481.369
493.886
494.729
491.677
494.575
493.702
500.036
483.856
491.537
499.357
485.635
498.648
485.414
495.352
487.112
489.935
486.984
486.054
494.981
498.615
492.669
493.738
488.701
491.061
485.154
496.601
496.994
495.217
485.567
491.983
486.774
499.712
497.908
493.15
492.517
498.453
498.825
483.79
487.575
496.256
487.852
486.944
498.647
494.308
500
487.23
493.678
484.595
494.22
483.29
489.777
487.989
488.592
485.213
487.947
489.961
490.396
484.722
488.994
497.148
484.025
499.596
489.509
499.77
492.761
499.598
487.004
490.192
495.163
487.309
496.231
486.408
493.124
496.28
489.348
497.708
492.013
485.541
495.052
485.095
483.447
488.012
493.936
489.248
499.733
494.901
492.161
485.928
498.683
483.424
499.546
499.066
498.793
494.895
487.544
489.869
488.324
491.032
499.891
496.529
483.528
484.508
497.039
489.848
489.941
484.468
489.844
482.388
484.785
482.727
485.068
485.579
486.736
493.021
484.388
494.012
488.223
498.17
485.477
487.782
500
486.459
499.999
486.248
489.804
489.866
491.368
488.606
491.86
500.004
497.84
490.137
491.306
492.533
492.355
489.208
495.597
490.458
500
493.624
494.017
490.866
496.381
491.835
494.458
494.472
491.983
493.287
490.816
490.416
497.524
497.78
483.958
496.764
483.345
481.197
496.715
486.656
487.945
489.301
497.358
494.94
488.377
497.024
490.875
485.389
484.596
488.555
485.985
496.97
494.052
487.987
486.794
486.521
485.56
499.447
494.116
498.776
485.724
487.61
490.13
488.109
485.388
496.789
489.384
499.14
489.898
494.779
496.03
496.747
496.444
499.282
489.494
499.779
499.643
494.836
487.593
492.98
484.612
485.883
494.058
490.825
494.129
498.819
495.081
495.854
490.457
489.722
487.335
486.715
485.157
486.884
488.168
485.189
484.951
486.656
494.015
489.183
486.014
487.864
485.213
486.142
486.662
497.549
499.948
484.432
488.772
497.699
489.135
489.581
495.909
484.022
490.488
492.036
496.442
495.82
494.637
484.082
497.908
497.571
495.285
487.456
491.563
492.38
488.226
488.858
486.169
491.37
486.356
486.962
491.52
486.023
484.127
485.123
492.005
487.295
488.472
491.823
498.377
483.938
485.963
483.104
485.683
486.158
495.023
493.183
493.923
488.494
488.91
488.132
496.971
490.486
488.381
497.313
497.335
492.627
490.117
490.492
496.961
496.765
491.562
492.419
492.737
495.356
493.963
495.616
492.754
493
496.482
494.096
495.846
495.425
496.461
493.354
494.536
495.332
493.264
484.594
495.368
492.094
494.383
497.681
492.387
493.548
485.27
493.175
484.564
491.074
485.812
487.606
483.369
489.583
495.971
494.759
487.24
492.779
495.814
492.727
482.753
493.817
493.231
485.691
483.82
484.113
488.768
484.632
485.323
486.923
486.932
486.101
488.379
484.894
486.36
485.165
486.858
484.31
483.404
486.856
484.842
486.054
497.884
493.422
487.044
496.175
499.886
497.94
498.538
492.303
489.092
492.028
497.864
484.389
490.734
497.564
498.721
499.12
499.044
486.233
498.507
499.052
498.625
498.653
485.952
499.546
499.141
485.976
489.287
489.116
489.873
488.554
489.644
489.296
490.464
488.392
489.86
488.423
488.217
488.545
488.975
495.987
491.778
486.184
492.442
484.79
495.812
487.23
485.999
486.158
485.314
484.537
486.318
492.664
485.914
489.005
486.044
485.772
485.388
487.601
491.319
487.546
489.052
488.011
491.774
491.039
490.53
489.407
488.416
493.339
495.883
488.08
485.903
490.676
487.769
489.549
489.239
493.522
486.977
491.561
493.951
490.268
496.72
486.485
490.54
493.017
494.291
490.526
488.118
490.641
493.08
492.183
493.397
487.84
494.027
494.044
495.348
496.755
496.545
497.796
495.039
496.622
498.588
495.861
494.872
496.913
496.68
496.941
497.069
496.74
497.255
496.075
499.768
497.237
492.372
495.396
499.81
492.286
499.323
500.029
490.189
489.894
486.223
499.048
490.121
495.814
492.442
487.844
484.989
491.944
490.013
482.925
486.871
494.431
498.25
494.83
492.488
489.506
499.457
494.422
492.569
493.258
495.827
490.237
490.711
496.833
494.54
486.826
498.207
487.321
487.144
491.927
491.917
492.731
487.806
483.312
492.15
487.974
491.587
490.728
488.617
499.916
492.002
489.384
487.242
486.323
484.344
482.661
487.186
485.471
487.017
485.154
487.032
489.023
487.905
487.269
488.817
487.685
489.081
484.709
488.722
488.228
487.819
489.863
488.088
490.063
488.863
489.774
487.648
488.901
490.498
488.983
491.383
491.019
488.25
492.193
489.189
487.323
489.924
491.498
493.773
497.788
495.622
490.478
490.762
491.171
498.093
494.574
491.848
487.988
499.972
493.669
499.66
494.456
497.203
495.553
485.929
485.408
485.293
495.979
482.093
495.647
498.46
485.208
487.841
493.601
490.699
498.06
486.636
497.733
496.224
489.841
491.781
498.939
493.926
492.49
490.573
496.241
490.663
490.686
492.659
494.485
491.259
497.391
487.415
498.603
498.799
495.943
496.878
496.778
499.06
490.741
496.464
499.064
492.519
488.909
486.382
488.988
489.308
486.5
484.438
488.322
488.371
493.481
490.479
489.321
489.285
490.695
490.206
490.644
493.39
483.602
484.757
483.344
486.807
483.924
487.285
486.791
483.672
498.521
487.793
484.515
485.807
485.021
487.458
487.506
485.185
494.072
485.948
491.926
486.854
484.582
483.883
484.222
489.523
489.619
486.476
485.071
484.739
487.235
500.018
499.999
486.423
486.949
499.671
500.134
496.092
486.585
497.411
498.768
487.419
486.415
486.284
486.378
483.702
499.585
494.076
494.043
487.551
484.309
489.221
490.564
495.798
484.82
489.456
488.062
496.947
488.723
492.704
486.71
490.849
488.852
493.331
491.192
491.998
491.186
487.824
495.433
486.582
487.357
494.438
493.07
493.656
497.63
495.385
492.956
493.045
494.604
495.894
497.296
498.127
495.757
496.48
499.924
495.582
497.569
497.571
499.036
498.62
495.888
496.504
498.562
483.278
486.083
485.419
499.924
490.541
499.837
499.358
497.928
499.984
498.544
499.252
500.044
496.424
493.581
496.201
500
494.129
500.064
498.405
499.949
497.302
499.8
499.569
496.581
499.401
495.911
499.864
497.138
499.174
500.111
499.231
499.162
497.686
498.319
493.366
497.429
495.382
484.017
495.972
495.162
495.754
484.327
487.626
495.158
495.816
489.119
490.387
489.353
490.925
487.981
493.839
492.019
495.185
487.751
486.972
488.294
497.659
500
499.475
499.372
499.913
484.2
485.501
489.732
484.208
486.835
483.37
485.33
485.372
484.087
485.901
484.429
483.95
484.674
491.002
490.421
489.072
488.006
488.418
484.458
486.79
488.606
485.398
491.248
489.847
486.715
497.484
495.55
496.15
487.712
486.518
495.955
491.016
494.542
483.092
486.013
493.013
494.325
492.458
489.11
488.894
492.451
490.846
487.9
483.453
491.692
492.928
491.518
491.403
495.257
491.894
498.415
491.688
493.552
493.095
484.652
484.804
493.806
495.444
492.211
497.411
496.202
499.761
495.866
499.993
498.985
497.357
498.974
500.075
498.895
498.49
499.579
487.526
490.088
492.004
489.134
488.257
488.706
489.267
489.487
487.217
490.573
493.254
492.286
485.381
493.621
484.315
497.299
489.206
490.065
499.632
485.745
485.253
499.496
498.972
482.938
499.251
481.599
481.403
484.335
487.06
484.737
487.101
485.75
484.737
485.256
490.64
488.142
486.846
484.038
486.796
488.028
485.544
483.735
490.326
488.063
487.225
491.617
486.664
491.033
482.031
482.364
487.003
495.831
491.728
488.164
493.685
493.79
487.556
487.607
487.488
488.911
483.332
497.304
498.588
498.144
496.225
499.011
498.488
487.142
485.431
483.359
487.966
485.418
494.953
499.332
488.861
498.426
497.375
489.797
489.175
496.184
485.588
498.88
499.916
499.268
498.337
499.843
496.28
486.363
487.618
492.043
492.786
491.363
492.045
490.541
492.896
490.756
493.637
491.942
492.004
491.042
497.389
491.608
493.585
497.43
494.936
482.053
486.629
489.712
488.25
495.12
484.507
485.832
489.433
490.722
495.213
491.023
489.45
494.979
495.11
491.432
490.938
489.315
491.517
493.839
492.354
491.359
491.372
494.965
494.11
494.312
494.348
499.462
493.162
494.376
497.041
494.205
493.899
492.278
492.992
496.269
498.19
498.823
499.325
499.734
498.889
493.217
497.489
497.606
497.248
487.089
483.071
492.322
481.793
483.711
497.193
494.43
496.054
498.867
490.37
498.127
489.292
498.51
487.021
498.375
494.606
499.311
488.454
488.16
485.634
483.275
483.616
484.578
495.938
484.475
486.065
489.289
485.09
499.162
496.925
496.511
485.058
499.73
486.46
489.881
488.201
486.146
493.377
490.902
495.887
498.952
497.012
492.56
499.294
499.102
498.673
490.029
494.725
494.695
484.438
495.805
495.407
484.718
483.43
499.773
498.016
494.953
488.038
485.537
485.161
486.157
490.458
485.673
490.351
497.376
489.95
489.374
499.677
496.436
483.929
497.443
488.911
488.122
490.837
491.592
492.34
492.414
490.978
492.954
490.906
498.428
498.673
486.696
499.237
489.911
497.029
487.147
498.673
496.234
487.293
493.196
499.49
492.731
488.097
492.118
498.096
487.34
489.604
497.717
487.79
489.012
486.41
486.292
496.113
498.919
495.773
494.741
498.949
497.991
486.631
495.958
490.012
499.561
491.09
496.693
490.131
499.629
486.792
499.052
483.068
488.051
487.708
494.394
490.699
484.437
485.843
484.122
486.438
498.97
486.492
485.415
486.284
490.228
495.629
484.499
490.065
486.135
489.693
486.737
485.691
488.006
488.01
487.429
498.347
492.341
486.351
488.215
487.736
486.708
488.095
487.672
486.929
484.252
489.336
495.241
488.187
483.248
484.835
484.316
490.937
482.101
488.819
489.908
491.698
487.138
496.488
490.053
489.747
496.081
488.687
494.006
487.767
495.626
497.021
493.575
488.565
489.048
499.73
498.513
485.788
492.997
487.002
485.512
493.808
485.598
485.06
487.084
487.512
496.843
496.788
497.323
487.886
490.311
487.383
496.662
490.561
487.887
490.037
491.023
496.385
492.277
494.293
485.152
491.162
486.324
487.285
490.461
489.677
491.37
491.284
484.595
486.805
483.854
484.318
484.019
495.814
487.414
486.463
496.03
486.742
486.297
485.924
493.555
492.18
489.697
493.43
490.54
489.641
488.879
488.435
491.125
491.711
492.95
492.192
493.154
499.305
492.755
484.528
493.24
486.68
496.736
493.258
485.986
485.498
494.937
494.447
494.304
489.997
487.869
487.156
490.775
486.324
497.351
492.55
495.03
493.855
493.39
495.425
490.499
492.652
492.719
497.644
487.745
492.172
492.651
498.695
489.051
489.374
488.308
497.305
492.206
491.703
488.397
489.016
486.404
490.424
489.448
491.803
495.77
493.702
487.872
495.734
488.401
484.759
488.24
487.313
487.641
494.24
495.962
487.039
485.839
485.789
484.681
487.367
484.481
486.733
493.378
492.443
485.036
491.134
498.52
496.681
496.849
484.884
484.737
497.745
498.859
499.978
498.799
499.916
485.135
498.621
485.474
498.649
498.024
496.429
497.024
494.767
496.812
484.684
494.086
492.578
492.476
492.449
498.914
489.637
488.223
498.483
489.664
492
488.517
483.725
489.036
489.438
491.501
489.326
482.315
497.365
492.217
493.074
485.356
489.049
492.558
485.707
485.079
488.145
485.771
487.236
499.575
484.854
499.61
487.394
486.688
497.825
486.271
486.929
487.66
486.669
485.423
491.352
491.379
485.075
488.3
484.732
490.518
483.922
490.997
492.985
495.736
489.807
494.755
494.401
493.5
485.796
493.219
496.274
498.136
494.738
498.211
497.332
496.759
494.292
493.336
496.924
497.019
493.309
496.089
496.999
496.05
499.192
493.823
489.256
489.23
490.357
488.101
490.38
491.161
489.236
485.391
499.875
485.233
499.668
498.082
499.831
499.403
500.218
499.36
482.617
499.595
485.07
486.721
486.046
485.74
482.865
485.283
482.939
485.676
483.903
484.901
485.67
485.685
484.167
483.439
487.771
481.787
486.603
487.281
500.001
487.273
487.439
485.4
500.001
486.643
489.794
499.77
500
500
499.118
499.983
488.697
489.29
490.771
491.964
500.001
486.248
491.076
500.011
489.605
490.266
492.321
490.202
487.566
489.909
490.716
491.33
499.71
490.361
492.128
500.005
487.325
493.709
500
490.465
493.375
491.936
499.784
493.201
492.893
500.003
489.911
488.192
496.209
492.21
492.513
499.914
494.633
493.183
484.404
497.578
498.826
493.203
497.316
495.441
499.202
498.606
493.266
493.076
500.029
489.465
493.971
484.199
498.383
499.579
498.554
497.861
492.798
498.134
497.978
488.918
499.645
491.427
498.964
499.374
498.703
490.195
499.27
498.977
485.239
497.898
491.207
497.077
494.206
494.652
494.621
498.587
500.096
499.767
484.679
499.861
491.913
500.003
492.628
499.989
485.791
492.949
483.704
492.39
485.009
489.677
483.456
482.946
484.744
487.609
490.715
486.639
484.227
484.303
484.897
491.124
493.272
495.878
484.351
498.861
481.555
485.971
488.709
486.95
492.781
491.427
489.586
491.729
495.516
489.796
492.065
494.496
488.483
495.757
486.495
496.561
492.048
497.404
498.192
492.841
495.581
496.311
496.575
493.823
494.545
491.268
487.974
484.788
493.124
493.102
492.485
496.149
491.448
492.182
492.662
495.177
496.066
495.009
491.446
498.883
498.636
486.475
484.964
483.653
488.254
498.733
494.953
486.377
487.012
487.544
490.557
490.263
499.612
491.671
490.573
498.958
494.604
499.252
496.139
499.998
498.43
499.247
495.009
494.543
498.546
497.062
490.004
499.321
496.386
486.681
488.13
488.207
486.544
492.859
496.594
491.295
495.36
491.59
499.504
491.628
495.847
495.001
484.682
497.174
495.343
496.177
484.898
483.881
483.132
482.979
481.692
484.406
484.185
500.077
483.686
499.92
500.011
500.087
499.991
498.804
484.306
484.655
487.235
481.817
486.788
490.594
486.221
485.173
489.97
500.058
489.621
486.655
499.755
490.51
492.057
488.015
489.663
490.775
490.933
491.218
492.576
494.091
492.311
497.384
497.518
495.458
495.182
494.521
497.447
498.244
483.533
499.231
498.743
488.392
498.896
498.613
488.071
486.848
484.187
486.636
486.785
483.675
486.757
486.97
485.808
498.187
485.547
498.628
498.873
499.997
499.989
499.347
499.701
500
499.786
499.848
499.977
498.097
499.015
486.101
499.671
499.54
486.084
486.044
486.919
487.733
500.003
499.209
499.656
488.243
487.357
500
483.286
486.027
486.903
488.212
487.566
488.076
489.394
489.929
491.575
490.878
494.825
497.619
487.54
498.763
487.3
494.944
482.1
489.698
483.146
489.767
489.694
488.834
485.8
483.137
494.106
485.532
481.916
482.119
484.158
488.048
486.412
486.342
482.519
499.416
499.737
499.292
498.058
486.431
488.662
486.389
488.294
483.005
487.1
485.147
484.745
488.465
488.745
488.476
492.014
491.825
489.104
493.971
488.467
498.225
486.65
486.86
493.991
494.699
493.688
496.62
498.544
496.607
490.559
489.738
493.902
494.92
493.011
493.375
493.357
498.476
495.883
493.424
497.243
495.968
496.11
495.828
497.837
489.853
496.989
496.262
488.741
498.513
496.885
489.562
488.949
498.951
495.93
494.429
496.411
495.292
496.487
481.407
495.992
486.527
489.487
482.091
498.561
484.87
494.112
489.574
487.604
499.742
496.5
483.624
498.193
495.508
498.961
485.135
499.51
498.583
485.279
485.827
493.03
486.215
487.196
489.311
489.37
489.457
485.916
490.465
488.687
487.374
491.016
493.27
497.673
492.475
483.877
484.241
497.094
497.981
487.66
498.051
486.761
494.582
484.058
496.742
498.716
493.758
483.692
482.988
481.832
494.08
484.487
487.445
487.022
485.092
486.458
486.422
493.594
485.943
483.365
485.328
485.813
485.505
485.801
488.283
488.394
488.158
492.002
488.448
488.366
488.496
490.897
493.055
491.644
488.754
490.484
492.834
493.109
492.862
491.19
491.475
492.167
489.63
492.607
493.353
491.273
498.785
490.31
496.002
497.102
496.758
484.658
484.861
483.59
493.031
492.699
496.928
496.511
499.654
492.133
499.77
492.607
488.497
499.022
499.182
498.634
494.301
494.79
495.26
497.446
486.636
497.648
490.195
499.499
491.565
498.085
499.842
488.81
486.925
483.195
489.979
490.391
487.727
490.525
484.332
485.679
485.958
488.259
488.272
484.583
485.363
485.432
489.619
494.422
498.174
490.366
490.158
487.289
494.659
492.342
485.658
497.064
485.395
497.048
485.932
487.624
497.678
499.021
497.097
493.764
485.655
493.02
493.681
486.168
494.561
498.094
498.067
486.257
486.788
494.437
498.366
485.671
498.501
499.19
498.94
496.971
494.909
486.013
491.639
491.797
491.196
484.919
488.368
491.514
490.814
494.696
496.403
496.005
495.753
489.246
487.397
485.962
488.066
486.952
486.923
485.969
489.679
488.427
489.108
488.639
490.078
490.338
491.073
492.68
489.365
490.113
490.802
492.99
493.365
489.841
492.264
486.834
488.827
490.99
483.485
484.217
490.785
495.66
493.133
491.2
487.471
493.679
491.924
488.663
494.258
492.423
488.591
487.878
487.533
484.9
492.85
491.899
492.648
488.347
498.24
493.745
489.408
489.368
495.175
490.8
489.238
488.278
490.412
489.956
494.593
489.468
493.23
493.88
494.927
489.638
491.113
497.065
495.25
488.513
499.234
492.206
499.782
489.435
499.759
487.153
491.924
499.229
489.874
497.2
499.192
486.827
490.965
493.448
493.743
495.61
490.807
490.508
495.116
495.667
491.243
498.44
497.302
498.155
489.5
490.924
485.311
490.017
485.679
485.532
484.049
484.864
484.642
484.842
483.858
485.635
485.27
482.26
483.5
486.666
486.503
498.436
496.747
491.329
489.826
495.726
498.829
499.95
498.695
491.355
489.587
489.925
492.341
486.544
486.425
497.595
489.915
492.333
497.587
493.98
487.448
488.652
491.344
485.579
490.821
490.897
498.415
490.061
491.248
492.609
491.926
491.691
492.602
490.711
491.757
494.203
490.771
498.386
488.371
494.767
495.529
485.611
497.232
493.639
496.222
498.584
485.652
493.361
486.043
486.638
493.469
493.698
493.783
497.556
489.212
489.153
488.869
486.224
497.061
497.264
497.123
486.349
497.541
497.25
488.676
485.549
486.674
484.727
490.765
490.977
494.773
485.74
494.947
484.453
486.835
491.914
490.02
491.406
491.575
489.891
497.298
498.092
485.118
486.048
485.704
484.902
491.604
484.974
496.568
493.962
491.094
496.772
484.339
494.106
495.129
495.017
492.27
495.48
497.371
499.073
485.331
498.606
489.574
485.231
488.673
491.953
492.105
489.524
492.251
487.491
485.071
485.187
485.467
490.707
488.297
486.246
487.395
488.141
489.412
489.644
490.861
489.633
487.491
489.978
493.022
487.6
494.805
493.429
487.559
495.601
487.05
489.997
492.992
490.393
488.809
488.166
490.986
487.37
490.495
488.466
486.31
492.537
487.338
492.273
486.929
488.752
492.596
493.733
484.025
489.888
486.798
495.762
490.571
484.171
484.41
492.27
485.004
483.209
495.129
495.281
492.601
497.733
496.068
491.599
498.79
494.335
495.692
493.167
496.333
493.741
499.361
499.777
494.14
492.122
497.731
493.007
494.88
494.531
494.936
494.632
496.765
495.089
492.701
495.949
496.063
490.836
489.975
497.466
488.817
499.893
497.608
493.521
497.573
486.123
490.996
490.586
498.611
486.183
497.808
482.84
493.538
486.563
484.809
485.51
493.486
485.422
495.276
492.364
492.248
494.067
492.964
486.328
487.914
494.846
487.151
487.511
491.12
490.788
492.899
496.015
496.181
495.855
496.157
494.631
491.205
497.245
498.822
497.468
498.025
490.285
494.949
495.887
498.929
497.611
497.341
492.204
491.292
490.881
491.348
495.65
495.851
491.823
487.904
488.355
489.556
484.647
489.471
489.133
491.176
492.446
492.207
494.868
487.867
489.252
487.649
487.397
489.006
485.454
499.517
485.406
485.458
482.326
485.635
485.728
488.028
483.127
487.21
488.762
491.749
483.856
490.531
483.026
483.183
483.475
487.474
487.173
485.746
490.372
483.589
490.165
487.12
488.498
489.153
488.594
488.891
489.914
493.36
486.865
493.32
493.262
492.134
491.922
487.273
489.445
491.491
490.323
492.095
495.727
490.04
499.575
488.796
490.62
495.445
491.277
493.852
492.666
499.584
499.256
496.434
496.146
494.507
498.179
499.412
490.507
487.924
497.851
490.65
497.327
484.537
496.534
487.883
484.82
498.432
497.721
487.723
499.076
497.418
496.483
498.108
487.892
497.732
498.344
493.332
499.388
487.704
499.988
499.955
499.539
500.02
500
495.009
495.018
494.216
484.61
483.846
483.748
484.857
487.657
487.838
499.202
488.417
499.856
489.616
499.68
488.627
484.498
491.385
492.88
496.555