/*--------------------------------*- C++ -*----------------------------------*\
| =========                 |                                                 |
| \\      /  F ield         | OpenFOAM: The Open Source CFD Toolbox           |
|  \\    /   O peration     | Version:  2312                                  |
|   \\  /    A nd           | Website:  www.openfoam.com                      |
|    \\/     M anipulation  |                                                 |
\*---------------------------------------------------------------------------*/
FoamFile
{
    version     2.0;
    format      ascii;
    arch        "LSB;label=32;scalar=64";
    class       volVectorField;
    location    "2/tube";
    object      U;
}
// * * * * * * * * * * * * * * * * * * * * * * * * * * * * * * * * * * * * * //

dimensions      [0 1 -1 0 0 0 0];

internalField   nonuniform List<vector> 
5195
(
(0.0100873 -0.0286168 -1.48914)
(-0.00729992 0.00324527 -1.46275)
(-0.00297769 -0.0380509 -1.51713)
(0.0343982 -0.0543926 -1.4256)
(-0.049945 0.0231511 -1.31772)
(-0.0118187 0.000721584 -1.46114)
(-0.0148025 0.014728 -1.40653)
(0.0134599 0.013749 -1.51466)
(-0.0155645 0.0138822 -1.50925)
(-0.0130079 0.0117841 -1.4467)
(-0.0489401 0.00119946 -1.39898)
(-0.139358 0.0331891 -1.52375)
(-0.0103672 -0.000732591 -1.50811)
(-0.0191712 0.0364193 -1.44285)
(-0.0386209 0.0198925 -1.43397)
(-0.0370141 -0.00138601 -1.46847)
(0.00863165 0.0042705 -1.53529)
(0.00890439 -0.0535003 -1.27453)
(-0.00603343 0.00514368 -1.48699)
(0.0225323 0.0311171 -1.51444)
(0.0168077 -0.0199412 -1.52063)
(-0.0448625 -0.0399421 -1.46577)
(0.00192767 -0.0036525 -1.43708)
(-0.0134874 0.0144544 -1.47053)
(-0.0144075 0.00463697 -1.50817)
(-0.0542202 -0.0610383 -1.4385)
(0.0442482 -0.0241452 -1.50148)
(-0.0246511 0.0225864 -1.54507)
(0.00873487 0.00557618 -1.47599)
(-0.0109301 -0.00140854 -1.48509)
(0.0141042 -0.00243884 -1.47618)
(-0.0243535 0.0201298 -1.4966)
(0.0129194 0.015409 -1.52916)
(0.0166816 -0.017812 -1.49751)
(-0.0061617 0.000336646 -1.51917)
(0.0106508 0.0208951 -1.518)
(-0.0191126 0.0192793 -1.57929)
(0.00837846 -0.00783102 -1.43024)
(0.0564944 0.0295543 -1.58693)
(0.00504125 0.0226623 -1.50942)
(0.00354478 -0.00398464 -1.47074)
(-0.00811632 -0.0181447 -1.43818)
(0.0542424 -0.00158189 -1.47439)
(-0.0119374 -0.00241715 -1.55135)
(0.0388007 0.000854228 -1.46656)
(0.00289014 0.00843218 -1.50149)
(-0.0272669 -0.0218068 -1.44413)
(-0.0628599 0.0652652 -1.33518)
(0.00927408 0.015786 -1.47012)
(0.0220137 -0.00591592 -1.486)
(0.0140653 -0.00897743 -1.4661)
(0.0133929 0.00601884 -1.5051)
(-0.00572104 0.011294 -1.45631)
(0.0384683 -0.00206149 -1.57387)
(-0.0213996 0.00056366 -1.62054)
(-0.000656803 0.00277336 -1.45075)
(0.0261799 -0.00997635 -1.41706)
(0.00411403 -0.0272011 -1.43087)
(-0.00729918 0.0076318 -1.58484)
(0.00732143 0.00726588 -1.4597)
(0.0105959 -0.0512735 -1.48994)
(-0.0227434 -0.0135701 -1.49381)
(-0.0553063 0.0229098 -1.445)
(0.0343855 -0.00663165 -1.4576)
(-0.00180939 -0.0277973 -1.45166)
(-0.0213533 -0.0168973 -1.50611)
(-0.00443047 0.0350712 -1.4797)
(0.0264149 -0.0279636 -1.51282)
(0.0116071 0.0177809 -1.44916)
(-0.0132454 -0.0139321 -1.51594)
(0.00761594 0.0126325 -1.50264)
(-0.00898658 0.00743183 -1.46662)
(0.0067903 0.00237611 -1.46072)
(0.0105334 -0.00246773 -1.36767)
(0.0252169 -0.0152371 -1.45938)
(0.00841688 -0.0249537 -1.4701)
(0.0362657 0.0478554 -1.53407)
(0.00800391 0.0269102 -1.38958)
(-0.00243925 0.00387739 -1.49935)
(-0.0257411 -0.0651499 -1.38905)
(0.0292711 -0.0223701 -1.32522)
(-0.0308554 -0.0414992 -1.44155)
(0.0119416 0.0251478 -1.46364)
(0.00775322 0.00561303 -1.45249)
(0.00547147 -0.0022956 -1.49656)
(-0.00201728 -0.0119036 -1.46599)
(-0.0035257 -0.000130462 -1.48217)
(-0.0230095 0.0281927 -1.46833)
(-0.00878817 0.00854778 -1.44871)
(-0.0175892 -0.00419655 -1.39506)
(-0.0310325 -0.00572398 -1.44098)
(-0.0135549 -0.012007 -1.54402)
(-0.000439587 -0.00694014 -1.54301)
(0.0116195 0.0228624 -1.37233)
(0.0142532 0.00885215 -1.39129)
(-0.00627515 0.0109368 -1.4576)
(-0.0106827 0.0238962 -1.44538)
(-0.0568157 -0.00870896 -1.4234)
(0.025998 0.00678636 -1.46398)
(-0.0176689 -0.00874254 -1.49748)
(0.0033381 -0.00509361 -1.48736)
(-0.00615055 -0.000290246 -1.5408)
(0.00620151 -0.00353995 -1.48574)
(-0.00524032 -0.0355805 -1.37807)
(0.00318705 0.00895145 -1.47531)
(-0.0119869 -0.0147263 -1.46359)
(0.00911068 -0.0437071 -1.41755)
(-0.0242011 -0.0195745 -1.51788)
(0.0414064 0.0476304 -1.44187)
(-0.00849533 -0.0146444 -1.48055)
(0.0288339 -0.0236362 -1.38668)
(0.0235636 0.0313603 -1.44847)
(-0.02846 0.0134842 -1.43383)
(0.0105716 -0.0236182 -1.47483)
(-0.0236942 -0.0387306 -1.46181)
(-0.016419 -0.00104035 -1.44555)
(-0.00490629 -0.0179093 -1.47361)
(-0.00287339 -0.00627523 -1.50022)
(-0.0184802 -0.00497996 -1.53511)
(-0.00334831 -0.0105541 -1.49528)
(-0.00280289 -0.00879742 -1.50524)
(0.0172234 0.0335292 -1.3992)
(-0.0114706 -0.00483348 -1.47801)
(0.0236952 -0.0413953 -1.38944)
(-0.0216694 -0.0109032 -1.50259)
(0.0295977 0.0194232 -1.46907)
(-0.0272012 -0.00612616 -1.48713)
(-0.00297978 -0.000557872 -1.45477)
(0.00825062 0.00745356 -1.38932)
(0.00455007 -0.0012198 -1.50297)
(-0.00505757 0.0018243 -1.45627)
(0.0191727 -0.00520164 -1.56794)
(0.0130275 0.00370215 -1.46295)
(0.00964475 0.0013729 -1.45892)
(-0.00365442 -0.0118378 -1.35762)
(-0.00799508 0.010064 -1.50087)
(-0.00672858 0.00144261 -1.5374)
(-0.00392662 -0.0152092 -1.40882)
(-0.00334938 -0.0398693 -1.44324)
(0.0114571 -0.0227653 -1.49824)
(-0.00310532 0.0472795 -1.44999)
(-0.0185076 -0.00875612 -1.52678)
(0.0152827 0.0118376 -1.43393)
(-0.00175616 -0.004787 -1.4841)
(-0.00207115 -0.0112262 -1.48927)
(-0.0140892 -0.00261175 -1.46538)
(-0.00538666 0.000769838 -1.49543)
(0.00249944 -0.0247775 -1.36067)
(-0.0084694 0.000375503 -1.5423)
(0.01151 0.0362974 -1.38811)
(-0.0056148 0.0680952 -1.40126)
(-0.00864647 0.0107256 -1.46658)
(-0.00757165 0.0181127 -1.45896)
(-0.0102932 -0.0145457 -1.45792)
(0.0111849 -0.0171438 -1.52663)
(-0.00446924 -0.0243856 -1.48382)
(0.00679546 0.00115673 -1.50057)
(0.0115797 -0.00174227 -1.51459)
(0.00381203 -0.0220362 -1.4912)
(0.0170744 -0.0332315 -1.42329)
(0.00678941 0.0145872 -1.48021)
(-0.00348369 -0.00251549 -1.47996)
(-0.0102529 -0.0137817 -1.49597)
(0.0333662 -0.0109451 -1.44176)
(-0.00227026 0.0100882 -1.4853)
(-0.0105385 0.0135284 -1.36787)
(0.00980152 -0.0176402 -1.53568)
(-0.0124875 -0.00100226 -1.55128)
(0.00144074 0.0010682 -1.52589)
(0.0115452 -0.0199667 -1.48953)
(-0.00131347 -0.00391071 -1.49215)
(-0.00205021 0.001771 -1.52596)
(-0.0127736 -0.00135653 -1.49393)
(-0.0094421 0.00146559 -1.50782)
(-0.0184765 -0.00356991 -1.53443)
(-0.00789766 0.00748123 -1.50829)
(0.0498536 0.0102679 -1.43484)
(0.0192114 -0.0266929 -1.49491)
(0.0140735 0.00776203 -1.53613)
(-0.0217172 0.0528092 -1.50481)
(-0.00379562 -0.00774325 -1.52022)
(-0.000175832 0.000560136 -1.49059)
(-0.00720507 0.0332583 -1.41184)
(0.00324021 0.00323036 -1.48718)
(0.0033289 0.0172685 -1.46094)
(-0.00808304 0.0114006 -1.4827)
(0.0200932 -0.00843309 -1.42316)
(0.00315956 -0.0158175 -1.51917)
(0.0191971 -0.0161132 -1.49258)
(-0.00221386 0.0035599 -1.42577)
(0.00145939 -0.0138752 -1.51964)
(-0.0230574 0.0358182 -1.48361)
(0.00937022 0.0201629 -1.46206)
(0.000991888 -0.00920733 -1.49801)
(-0.0144153 0.0214154 -1.42539)
(0.0344632 0.000540173 -1.45377)
(0.00324757 -0.0229876 -1.49494)
(-0.00941999 0.0171637 -1.37428)
(0.0254306 -0.00221144 -1.47169)
(-0.00682364 -0.00737741 -1.45856)
(-0.00749622 0.00945009 -1.5331)
(-0.00167433 -0.00105672 -1.48776)
(0.00847283 0.0335346 -1.51024)
(-0.00837946 0.0109593 -1.46842)
(0.00791887 -0.0145729 -1.45292)
(-0.00133104 0.00908643 -1.49186)
(-0.00613851 0.00546268 -1.47529)
(0.0231636 -0.00798256 -1.46224)
(0.00547842 -0.0275356 -1.39588)
(0.00401353 -0.0103844 -1.51471)
(-0.00710096 0.00041131 -1.5366)
(-0.00193611 -0.00336999 -1.488)
(0.0355564 0.00419763 -1.45466)
(-0.00421566 -0.0137678 -1.55374)
(0.00279286 0.0154762 -1.50702)
(0.0131771 -0.0193926 -1.49096)
(0.00453947 -0.00214069 -1.49906)
(-0.031281 0.00587192 -1.42934)
(-0.0077062 0.0030731 -1.53409)
(-0.0219601 -0.00357856 -1.48722)
(0.00107647 0.00964065 -1.43865)
(-0.00410281 0.012659 -1.47537)
(-0.00586493 0.00288194 -1.44533)
(-0.00654451 0.00194141 -1.45797)
(0.0304272 -0.0244925 -1.42611)
(0.034545 0.0183763 -1.43035)
(-0.000473286 -0.00662572 -1.51424)
(-0.00480816 0.000104656 -1.48406)
(-0.00065977 0.0327295 -1.43757)
(0.0153859 -0.004794 -1.44444)
(0.0123579 -0.0105337 -1.44637)
(0.0365844 0.0488352 -1.43454)
(0.00392125 -0.0426699 -1.49221)
(0.0247461 0.0278512 -1.48999)
(0.000487177 0.00965246 -1.4894)
(0.00673911 0.00598301 -1.49097)
(0.0242984 -0.0172779 -1.48974)
(-0.0139274 -0.0266726 -1.45555)
(0.0236699 0.037221 -1.45218)
(0.00517203 0.0042858 -1.40855)
(-0.00470486 -0.0562701 -1.49023)
(-0.004185 0.00612343 -1.48018)
(0.0157956 0.0238874 -1.39916)
(-0.0250529 -0.00683711 -1.5019)
(0.00882483 0.0143151 -1.4669)
(0.0137242 -0.00809313 -1.52074)
(-0.014457 -0.0572301 -1.4382)
(-0.00369732 0.00135687 -1.44912)
(0.0310745 -0.0021381 -1.46406)
(-0.0264729 -0.0598193 -1.51048)
(0.0190968 0.0328122 -1.41313)
(0.00454256 -0.000841323 -1.51578)
(0.00635435 0.0124643 -1.48335)
(-0.0057752 -0.00200427 -1.504)
(0.0199863 0.0155132 -1.44046)
(-0.0219946 0.0447435 -1.61601)
(0.0346106 -0.00682177 -1.43979)
(0.01466 0.0004452 -1.49102)
(-0.00880831 -0.000650937 -1.46812)
(0.00883353 -0.0128199 -1.49791)
(0.000924443 -0.00319759 -1.51219)
(0.0267233 0.0160214 -1.43505)
(0.0114811 -0.0159327 -1.51691)
(0.0457139 0.000403966 -1.4959)
(-0.0061791 0.0100658 -1.45528)
(-0.0106872 -0.00181305 -1.36493)
(-0.00587338 0.00104873 -1.47263)
(-0.00579302 0.00680287 -1.48759)
(0.00345943 0.0110511 -1.45277)
(0.0267025 0.0108447 -1.49639)
(0.0165806 0.0228552 -1.48791)
(0.00401984 0.0188568 -1.47687)
(0.00461464 -0.00433739 -1.48475)
(-0.0136826 0.0107036 -1.39155)
(0.00139788 0.0119837 -1.50448)
(-0.00868888 0.046472 -1.44254)
(-0.0125175 0.0150846 -1.42261)
(-0.0176214 0.0119027 -1.41503)
(-0.00939579 -0.0196761 -1.51888)
(0.0371833 0.0222823 -1.42999)
(0.0200108 0.0426179 -1.40821)
(-0.0348182 0.0114333 -1.45203)
(0.0356308 -0.013489 -1.46605)
(-0.000423138 0.00530889 -1.45235)
(-0.00319269 -0.0187879 -1.49053)
(0.0410021 -0.00576249 -1.40668)
(-0.0113307 -0.0314512 -1.46996)
(0.00239612 -0.0242868 -1.4231)
(-0.0452119 0.00818058 -1.39191)
(0.00939224 -0.0211039 -1.51679)
(0.0128274 0.00915956 -1.47656)
(0.0473074 -0.0683767 -1.62943)
(-0.0082651 -0.00520501 -1.53838)
(0.0673915 0.093222 -1.56184)
(0.0160015 0.0322908 -1.51563)
(-0.0209447 -0.0164277 -1.48304)
(-0.0042408 0.00101045 -1.53695)
(-0.0118901 0.0269209 -1.44265)
(-0.013568 0.0159078 -1.48229)
(0.024111 -0.0078059 -1.5174)
(-0.00405452 0.0175666 -1.46851)
(0.00132225 -0.0185535 -1.4613)
(0.000273445 0.0126044 -1.46865)
(0.00015042 0.0117077 -1.43773)
(-0.00479655 0.0449445 -1.42982)
(0.00530777 -0.085263 -1.38309)
(0.0136105 0.00573399 -1.48579)
(-0.0293879 -0.0116683 -1.51459)
(-0.0315503 0.00927867 -1.46318)
(-0.0133514 -0.0217583 -1.46679)
(0.000563725 -0.0398215 -1.48993)
(0.0327399 0.0329815 -1.50137)
(0.0117882 -0.00789374 -1.46789)
(-0.0208015 -0.0424905 -1.39548)
(-0.00333364 -0.056211 -1.57785)
(0.00295225 0.0155607 -1.47591)
(0.0192366 0.00467032 -1.46969)
(0.0106746 -0.0217277 -1.51732)
(-0.00439208 -0.0619753 -1.53144)
(-0.0118558 -0.0275597 -1.44814)
(-0.0205999 0.0138093 -1.43515)
(-0.0263642 -0.0200336 -1.40817)
(0.000726274 0.017297 -1.42258)
(0.0222134 0.000667722 -1.50328)
(0.0107066 -0.0169454 -1.44952)
(0.00130358 0.00175818 -1.46841)
(-0.0132113 -0.000210592 -1.46269)
(0.0161998 -0.00372557 -1.51224)
(-0.00676392 -0.00218849 -1.39261)
(-0.00705318 0.00784368 -1.48684)
(-0.00409789 0.0126977 -1.46648)
(-0.0147056 0.00672348 -1.37083)
(0.0262397 0.0150837 -1.44042)
(-0.0182297 -0.000973669 -1.45794)
(-0.0163657 0.0173649 -1.46817)
(-0.00711045 -0.00457434 -1.50372)
(0.0167705 0.00101945 -1.43322)
(0.0294237 -0.00356578 -1.46148)
(-0.00780791 0.0115523 -1.47539)
(0.0295591 -0.0280953 -1.4435)
(-0.0408464 0.00909729 -1.43773)
(-0.0161926 0.0078546 -1.46071)
(0.011057 -0.0244037 -1.52162)
(-0.00565833 -4.52762e-06 -1.45869)
(-0.00464669 0.00631782 -1.48186)
(-0.0292899 0.0133136 -1.48039)
(0.000506418 -0.0148559 -1.47144)
(-0.00366751 0.00421109 -1.47821)
(0.0123185 -0.0091718 -1.45958)
(-0.00734323 -0.000613506 -1.4597)
(0.00630525 0.0317323 -1.48412)
(-0.00205563 0.0096427 -1.52166)
(-0.0700063 0.00619647 -1.48667)
(-0.00629328 0.000692703 -1.45618)
(-0.0182976 0.00244131 -1.48424)
(0.0171461 7.7705e-05 -1.51504)
(0.034788 -0.00420298 -1.42463)
(-0.0167676 0.0100783 -1.47822)
(0.0117445 -0.00489413 -1.46865)
(-0.00559489 -0.00534419 -1.48679)
(-0.00410033 0.0241899 -1.46593)
(-0.00877284 0.014577 -1.50577)
(0.021524 0.0210332 -1.48867)
(0.0121219 0.00866141 -1.5113)
(-0.00965984 0.012348 -1.41514)
(-0.00411025 -0.00463466 -1.49443)
(0.00283238 -0.00220087 -1.48741)
(-0.00533948 0.0118672 -1.49131)
(0.0046489 -0.0252722 -1.54553)
(0.00736881 0.00648043 -1.46823)
(0.00835076 0.0590222 -1.41517)
(-0.00719081 0.0113408 -1.46408)
(0.0126647 -0.00523465 -1.42544)
(0.0246667 -0.00924978 -1.45302)
(0.0147959 -0.0046433 -1.42059)
(-0.00763172 -0.00459609 -1.47276)
(-0.0214384 0.00132238 -1.51214)
(0.00993778 0.0202579 -1.46298)
(-0.0045358 -0.0079961 -1.50017)
(0.0278037 -0.0408393 -1.41588)
(0.00358622 -0.00432195 -1.50282)
(-0.000254972 -0.00122676 -1.47858)
(0.00583598 -0.00642371 -1.49403)
(-0.00672668 0.0275869 -1.4586)
(0.00692881 0.0483059 -1.47607)
(-0.00678988 -0.00124151 -1.51622)
(0.0341667 -0.00781807 -1.44065)
(0.00746131 -0.0158928 -1.51519)
(-0.0610863 -0.00411031 -1.46174)
(-0.000723945 -0.0267695 -1.46284)
(0.0181211 -0.0109722 -1.46642)
(-0.00932675 0.015486 -1.47275)
(-0.0142204 0.00656904 -1.47894)
(0.0275358 0.00167595 -1.50945)
(0.00673147 0.00482694 -1.48426)
(-0.00115913 -0.00695987 -1.48536)
(-0.00677679 0.0206084 -1.44585)
(0.0060539 -0.0181251 -1.49249)
(0.00872044 0.0330996 -1.45956)
(0.0407544 0.0186516 -1.417)
(0.0106747 0.0531453 -1.45568)
(0.0245218 0.0136238 -1.37998)
(-0.00305404 0.00952906 -1.42744)
(-0.0239331 -0.0522524 -1.42447)
(0.00957712 0.0228314 -1.47903)
(0.0079739 -0.0111808 -1.44088)
(0.000372 0.00138953 -1.44982)
(0.0135335 -0.0141989 -1.48147)
(-0.00575451 0.000659065 -1.48004)
(0.00679508 -0.0026498 -1.45644)
(-0.00327253 0.0114684 -1.46637)
(0.00687061 -0.00122054 -1.48509)
(0.0374866 -0.0298124 -1.4109)
(0.0324504 0.028877 -1.49029)
(0.00851654 -0.0158359 -1.52251)
(-0.00582654 0.0148866 -1.4507)
(0.0176292 0.0118877 -1.44393)
(-0.00988993 0.0204603 -1.43098)
(0.0119772 -0.00810141 -1.48273)
(-0.0121111 -0.0021281 -1.48971)
(0.0117315 -0.0114904 -1.49546)
(0.0317405 -0.00964176 -1.43755)
(0.00195776 -0.0275496 -1.42846)
(0.00105518 -0.0131846 -1.52889)
(0.0010102 0.0396985 -1.55386)
(0.0304217 0.00797702 -1.46018)
(-0.0231252 0.016849 -1.49805)
(-0.0227237 0.0185721 -1.41059)
(-0.00212749 0.0122372 -1.48529)
(0.027738 -0.00783509 -1.45707)
(0.00799415 0.0139936 -1.51889)
(-0.0338525 0.0156769 -1.42349)
(-0.00392518 0.0458813 -1.42716)
(0.00533001 -0.0166307 -1.53146)
(0.00714216 -0.0196037 -1.54012)
(0.00635506 -0.0193848 -1.53176)
(-0.0103365 -0.000411855 -1.50955)
(-0.0294134 -0.0238579 -1.53259)
(0.00548698 -0.0105862 -1.49092)
(-0.000236446 0.0108532 -1.45978)
(0.0153263 0.000699522 -1.50112)
(-0.0307278 -0.0398185 -1.5364)
(0.05777 0.0473163 -1.48666)
(0.0343136 -0.0295618 -1.41579)
(0.035402 -0.0053316 -1.34509)
(0.0139129 -0.0156474 -1.35747)
(0.00862155 0.0063453 -1.53498)
(0.0128103 -0.019537 -1.47817)
(0.00663274 -0.00118957 -1.4532)
(-0.00565158 0.000890084 -1.4505)
(0.0106256 0.00116034 -1.50657)
(-0.00883676 -0.0251843 -1.4224)
(-0.0110201 0.00467729 -1.5437)
(-0.00615468 0.00409639 -1.49299)
(-0.0201156 -0.0221331 -1.46583)
(-0.0160815 -0.0117888 -1.50346)
(0.0158343 -0.0152327 -1.45011)
(-0.00342652 -0.0350201 -1.47639)
(0.00362904 -0.00473725 -1.49595)
(-0.0638824 -0.0164399 -1.40213)
(-0.00214962 -0.0388945 -1.42326)
(-0.0222904 -0.0260823 -1.29441)
(0.000761113 -0.010157 -1.41305)
(-0.03632 -0.0106316 -1.4032)
(-0.00782054 -0.026235 -1.50055)
(-0.0207316 -0.00517761 -1.46114)
(0.00994362 0.00268368 -1.48203)
(-0.0459364 -0.0270404 -1.38945)
(-0.00670603 -0.00239817 -1.47866)
(0.00186065 -0.00299713 -1.50449)
(-0.0224342 0.0412111 -1.49003)
(0.00812663 -0.015899 -1.35375)
(0.0142564 -0.00722079 -1.47483)
(0.0260582 -0.0162902 -1.44735)
(-0.0265265 -0.00975899 -1.45183)
(-0.0138331 0.0122953 -1.51692)
(-0.00408597 0.0230688 -1.46517)
(-0.020657 0.0211232 -1.42689)
(-0.00263226 -0.00121064 -1.48127)
(-0.00484433 3.6235e-05 -1.48994)
(0.00395917 -0.0103578 -1.49863)
(0.00211676 -0.0423161 -1.45416)
(0.0131788 0.00917646 -1.3996)
(-0.0172416 0.00470472 -1.45416)
(-0.0141296 0.00281106 -1.48873)
(0.0158272 0.0264714 -1.48093)
(0.00217123 -0.0078423 -1.49685)
(-0.0713903 0.0254783 -1.43499)
(0.0239711 0.00166546 -1.40965)
(0.0245373 0.0320583 -1.43372)
(-0.00818102 0.0109515 -1.36886)
(-0.00787506 0.000842812 -1.48959)
(-0.0063549 7.71423e-05 -1.44967)
(0.00798336 -0.0141624 -1.54923)
(0.00543318 -0.00847335 -1.47866)
(0.0110233 0.0332622 -1.45359)
(-0.00887518 0.00396301 -1.48468)
(0.0239215 -0.00120288 -1.41272)
(-0.0100438 0.0268059 -1.47603)
(0.0626152 -0.0214525 -1.40999)
(0.0282015 0.0244716 -1.46032)
(-0.00868961 -0.00464418 -1.50286)
(0.0308061 -0.00628756 -1.46707)
(-0.00364893 -0.019462 -1.47932)
(-0.00640613 -0.00470127 -1.50187)
(-0.0185966 0.0242669 -1.5364)
(-0.0634556 0.0351185 -1.50015)
(0.00589949 0.00966405 -1.42414)
(-0.00691455 -0.00633146 -1.5044)
(0.00775814 -0.000681774 -1.45249)
(0.0192848 -0.0324672 -1.42111)
(-0.00751733 -0.00415621 -1.50149)
(-0.0443246 0.00821549 -1.37059)
(-0.00602623 0.00423484 -1.47893)
(-0.00452456 0.00463225 -1.48703)
(0.0316716 0.0245817 -1.44354)
(0.0161304 0.0178051 -1.41479)
(-0.0484999 -0.0199705 -1.45469)
(-0.00598812 0.00895298 -1.51881)
(0.00174299 0.01021 -1.41893)
(0.0114522 0.064124 -1.52273)
(0.0105232 -0.00742407 -1.5327)
(-0.00967343 0.00156311 -1.51676)
(-0.030117 -0.0205326 -1.44267)
(-0.0438524 -0.00479983 -1.40304)
(0.0794458 0.00673706 -1.43701)
(0.00225919 -0.00475188 -1.44107)
(-0.000366314 0.010982 -1.47877)
(-0.010839 0.00700519 -1.52292)
(0.00772976 -0.0136727 -1.53287)
(-0.00376888 0.0413461 -1.44018)
(0.0215741 -0.0116394 -1.50749)
(0.0266276 -0.010952 -1.49072)
(0.00898653 0.00348546 -1.5501)
(-0.00454382 -0.00785892 -1.49656)
(-0.00198621 -0.00963201 -1.49879)
(0.0191765 -0.0238969 -1.39549)
(0.0361344 0.00888856 -1.46002)
(0.0394139 0.0803758 -1.58204)
(0.0165328 -0.00579534 -1.49852)
(0.0199527 -0.00514257 -1.50937)
(-0.00185929 4.22491e-05 -1.48382)
(-0.0183577 -0.0163385 -1.53482)
(-0.00593109 -0.00790729 -1.49397)
(-0.00530495 0.00743103 -1.49028)
(-0.00926364 0.00244448 -1.47389)
(-0.010131 -0.012529 -1.46326)
(-0.0452648 -0.0168231 -1.50094)
(0.0245223 -0.00327078 -1.46129)
(0.0286559 -0.0062071 -1.43983)
(0.000656915 0.0138713 -1.44886)
(-0.00257234 -0.000235689 -1.49066)
(-0.00566065 -0.0021741 -1.53423)
(-0.00161214 -0.0382672 -1.49815)
(0.00054083 -0.00135474 -1.52199)
(0.021093 -0.0152531 -1.45394)
(-0.000602438 -0.00556252 -1.42177)
(-0.0837594 -0.112104 -1.50709)
(-0.0181522 0.0115816 -1.49144)
(0.0644334 -0.00308854 -1.43667)
(0.0117613 -0.00739952 -1.50487)
(0.00369019 -0.00738927 -1.47683)
(0.0212976 -0.00448434 -1.48284)
(0.02881 -0.00623624 -1.5313)
(0.00205463 -0.0260828 -1.44762)
(-0.00155178 -0.00176462 -1.49476)
(0.0123451 -0.000909788 -1.48471)
(-0.00309057 -0.00152235 -1.48613)
(0.0147644 -0.00384365 -1.50089)
(-0.0109646 0.0268686 -1.40419)
(-0.00350417 0.00713424 -1.50891)
(0.0032433 0.00145861 -1.46899)
(0.0108972 -0.00925207 -1.51032)
(-0.0014146 0.0243067 -1.42227)
(0.034967 0.0294246 -1.43751)
(0.0178352 0.0250478 -1.4353)
(0.0103328 -0.00457062 -1.53323)
(0.0249823 -0.0215683 -1.44362)
(-0.0311735 -0.0295942 -1.46132)
(-0.0527934 -0.0655242 -1.50489)
(-0.00392121 -6.4291e-05 -1.52017)
(0.027086 -0.00442588 -1.4597)
(0.0322104 -0.00287624 -1.45237)
(-0.00223744 -0.00012397 -1.47013)
(0.00805151 0.026987 -1.46741)
(0.00180639 -0.00174487 -1.45072)
(0.0326792 0.00588837 -1.45227)
(-0.0296688 -0.0296117 -1.44974)
(-0.0134266 0.0228413 -1.48456)
(0.021363 -0.0494904 -1.41565)
(0.00476389 -0.00755575 -1.50391)
(-0.00746143 0.0285463 -1.47912)
(0.0204836 0.00306094 -1.50235)
(0.00267732 0.0143512 -1.52481)
(-0.0242878 0.0386296 -1.43209)
(-0.00137126 0.00658113 -1.48399)
(-0.02926 -0.00407257 -1.39539)
(0.0046699 -0.00828579 -1.53879)
(-0.00911265 0.00173492 -1.50255)
(-0.0013526 -0.00177163 -1.48825)
(0.000212058 -0.00834281 -1.51187)
(0.006307 -0.0107938 -1.53307)
(0.0127231 -0.028801 -1.4236)
(-0.103267 -0.0396056 -1.55156)
(-0.00475487 -0.0172775 -1.51434)
(-0.0121124 0.00498665 -1.47918)
(-0.0213191 -0.0161596 -1.42501)
(0.0492584 0.0343169 -1.38064)
(0.0136445 0.04164 -1.43613)
(0.0319408 -0.0278375 -1.42943)
(-0.0356472 0.0063645 -1.41334)
(0.00536372 0.00177609 -1.51534)
(0.00593501 0.0129873 -1.46332)
(-0.00535284 0.0253209 -1.48157)
(-0.00323541 0.0188758 -1.51042)
(0.0698711 0.0188507 -1.50977)
(0.0100963 -0.00267965 -1.4891)
(-0.00787035 0.0178142 -1.46603)
(0.0116348 -0.000266007 -1.47859)
(-0.000185717 0.0155897 -1.44469)
(-0.00324594 0.00468518 -1.46132)
(0.029791 -0.0200776 -1.43686)
(0.00252046 -0.0108428 -1.53115)
(-0.0206534 0.00517648 -1.53688)
(-0.00861063 -0.0218688 -1.44489)
(-0.00282511 0.0240346 -1.49889)
(0.00953815 0.00300272 -1.53444)
(0.00829221 -0.0119069 -1.53203)
(-0.00113322 0.0317039 -1.41809)
(0.044958 -0.00146633 -1.42201)
(-0.00390312 0.0067995 -1.46856)
(0.00760042 -0.0136437 -1.5252)
(-0.00706406 0.000241814 -1.4964)
(0.0209887 -0.000395738 -1.47382)
(0.0393941 0.0120631 -1.44754)
(0.0105169 -0.00531672 -1.47155)
(0.0103275 0.0115532 -1.45627)
(-0.00764146 0.0193013 -1.48464)
(0.00352892 0.00998403 -1.47516)
(0.00233864 -0.00648373 -1.48059)
(-0.00424304 0.00877602 -1.49663)
(-0.0190653 0.00989246 -1.45649)
(-0.004362 0.0354973 -1.45413)
(0.033586 0.00789342 -1.45138)
(0.0107656 -0.0395078 -1.40324)
(-0.00501192 0.00939269 -1.41528)
(-0.0250696 -0.00787581 -1.5323)
(0.0402519 0.00117018 -1.35714)
(-0.0198829 0.000431713 -1.49857)
(0.0039975 0.0342945 -1.45437)
(0.039439 0.0524623 -1.48181)
(0.0292381 -0.0127805 -1.45125)
(0.00838878 0.000204735 -1.51834)
(0.0177798 0.0187228 -1.47181)
(0.000983657 -0.00615612 -1.48896)
(-0.00456525 0.00196557 -1.48933)
(-0.016099 0.0117665 -1.42837)
(-0.0101482 -0.0303568 -1.48522)
(0.00251516 0.0132109 -1.4481)
(0.0159271 -0.0145067 -1.45898)
(0.0134239 -0.0359129 -1.51594)
(-6.46773e-05 0.00848199 -1.47263)
(-0.0243906 -0.0498741 -1.51371)
(-0.00825561 0.0027425 -1.47789)
(-0.02412 -0.0107927 -1.48131)
(0.00969335 -0.0308585 -1.44982)
(-0.00251127 0.00543683 -1.48921)
(-0.00101249 -0.0057267 -1.48413)
(0.0120599 -0.0876805 -1.45646)
(-0.0251872 -0.0139013 -1.51416)
(0.00359108 0.016022 -1.50339)
(-0.0219795 -0.013549 -1.51608)
(0.010164 -0.00294782 -1.48791)
(0.0039421 0.0207776 -1.44269)
(-0.00609105 -0.00830748 -1.4646)
(0.000375041 0.0112915 -1.45119)
(0.00639149 -0.00305444 -1.51132)
(0.00809542 0.0269802 -1.47849)
(0.0173516 -0.00467614 -1.46833)
(-0.0364058 -0.0179689 -1.50004)
(0.00671577 -0.0261613 -1.47588)
(0.0113071 0.0432873 -1.37375)
(0.0267817 0.0773295 -1.4998)
(-0.00440808 0.00584676 -1.4321)
(0.00502158 -0.0249156 -1.44735)
(-0.00240233 -0.00122611 -1.49961)
(0.00794411 -0.0193887 -1.5098)
(0.0255974 -0.0292205 -1.42137)
(0.00627672 -0.0199867 -1.47255)
(0.006291 -0.0380539 -1.44142)
(0.00451108 -0.0302138 -1.49201)
(0.00282151 -0.00114187 -1.48421)
(0.00842512 -0.00757872 -1.487)
(0.0179699 -0.028678 -1.48372)
(0.0353528 0.0152603 -1.5022)
(-0.0154035 0.0144787 -1.43668)
(0.0188869 -0.0036884 -1.45038)
(0.000925764 0.000903697 -1.45112)
(0.00653673 -0.00416149 -1.49685)
(-0.0178162 0.000379956 -1.52718)
(0.00939838 0.00228374 -1.50414)
(-0.00672517 -0.00404392 -1.48816)
(0.00458656 0.00645468 -1.39966)
(0.00527584 0.000840923 -1.40699)
(-0.000433706 -0.00577896 -1.47937)
(-0.00493509 -0.00325635 -1.3969)
(-0.0586584 0.000940667 -1.40147)
(0.00464891 0.0248931 -1.33965)
(-0.013201 0.0229696 -1.49764)
(0.116553 0.000478807 -1.44123)
(0.0125139 -0.00987084 -1.48771)
(0.0374897 0.0061606 -1.33005)
(0.00334459 -0.0173107 -1.52446)
(0.0036261 -0.0215501 -1.49161)
(0.000310032 0.000331686 -1.48154)
(0.0661845 0.0519769 -1.427)
(0.0177698 0.00277455 -1.47095)
(0.0190872 -0.0704003 -1.40784)
(-0.00259416 -0.0016446 -1.51424)
(-0.00502743 0.0196599 -1.41786)
(-0.0102506 -0.0337497 -1.52751)
(-0.0179238 -0.0340402 -1.43955)
(0.00700414 0.00458749 -1.45)
(0.00924989 -0.00923813 -1.53444)
(-0.0107295 -0.00668888 -1.36867)
(-1.74238e-06 0.0140633 -1.46803)
(0.00089939 0.00451649 -1.47213)
(-0.0497067 0.00914858 -1.42803)
(0.00635984 0.0250559 -1.43482)
(0.00815859 0.00216401 -1.46767)
(-0.00814444 -0.0349014 -1.51693)
(-0.00400118 0.0157035 -1.47585)
(0.00687684 0.023588 -1.46171)
(-0.00344944 0.0104596 -1.44747)
(0.0230919 -0.0117343 -1.50886)
(-0.000327169 0.0174568 -1.47419)
(-0.00410185 -0.0027507 -1.48156)
(-0.0115045 0.00425113 -1.5123)
(-0.0134342 -0.00227294 -1.55219)
(0.0720076 -0.0148589 -1.41358)
(-0.00525686 0.000526109 -1.40321)
(0.015694 0.0214809 -1.46316)
(0.0443224 -0.0319655 -1.3477)
(0.0188149 -0.00734197 -1.43265)
(-0.04162 -0.0603152 -1.54384)
(0.00306699 -0.00706902 -1.39422)
(-0.00325528 -0.00874282 -1.45221)
(-0.00140373 -0.00569934 -1.4116)
(-0.0145698 -0.00561301 -1.37902)
(-0.0103656 0.0281626 -1.42868)
(0.000910395 0.00184261 -1.49686)
(0.016934 0.028713 -1.44983)
(0.0144902 -0.00842559 -1.51561)
(0.00207115 0.00904351 -1.44111)
(0.0161894 -0.00843333 -1.52326)
(-0.000165414 0.00705287 -1.47767)
(-0.0334412 -0.0150113 -1.46146)
(-0.00936027 -0.00851942 -1.50033)
(0.00646103 -0.00859604 -1.47835)
(-0.00233442 0.00143807 -1.42692)
(0.0228035 0.00300958 -1.46947)
(0.00900637 0.00260918 -1.47637)
(0.0144405 -0.0297104 -1.43736)
(0.0230738 0.0164803 -1.46699)
(-0.0303098 -0.0242584 -1.44463)
(-0.0144487 -0.028091 -1.53096)
(-0.0492044 0.0129712 -1.48651)
(-0.0551889 0.0121452 -1.31454)
(-0.0300038 0.00942274 -1.42602)
(-0.00458188 0.00388344 -1.47657)
(-0.0141698 0.0296326 -1.45259)
(-0.0106062 0.000494925 -1.4407)
(-0.00379899 -0.000443795 -1.47274)
(-0.000492244 -0.0435033 -1.47499)
(-0.00893614 0.000371395 -1.49522)
(0.00805857 0.00508972 -1.47846)
(0.00102168 -0.00239224 -1.45103)
(0.00915612 0.0492792 -1.41199)
(0.0137289 0.00949371 -1.47093)
(0.0225841 0.00298169 -1.46816)
(0.019601 0.0111181 -1.46809)
(0.00231942 -0.00552075 -1.46703)
(0.0356558 0.0469068 -1.52509)
(0.0129491 0.0215726 -1.43871)
(-0.0577844 -0.00372312 -1.45722)
(0.011062 -0.00931194 -1.46363)
(-0.00954162 -0.00657677 -1.5029)
(-0.0312804 -0.0108524 -1.50148)
(0.0288431 -0.00368839 -1.46942)
(0.0130016 -0.00812102 -1.47342)
(-0.00576723 -0.0137171 -1.49077)
(0.0197964 -0.00148717 -1.50567)
(0.0230242 0.00836574 -1.46902)
(0.0103978 0.0226945 -1.46645)
(0.000707259 -0.0177311 -1.52686)
(-0.0614133 0.00125449 -1.48006)
(-0.00674452 -0.0198446 -1.4687)
(0.0237307 -0.0153984 -1.4497)
(-0.00972223 -0.0149357 -1.44715)
(-0.0157062 0.0127008 -1.48145)
(-0.0439886 -0.0116647 -1.45211)
(-0.00204074 -0.000730754 -1.47173)
(-0.00821561 -0.00152262 -1.45466)
(0.007317 -0.00378772 -1.44798)
(-0.00320234 0.00241081 -1.47868)
(-0.0366478 0.0151306 -1.53174)
(-0.0257299 -0.033629 -1.52851)
(0.0164913 -0.0224306 -1.51228)
(-0.00549095 0.00320189 -1.49589)
(-0.00558456 0.000791253 -1.45974)
(-0.0018392 -0.000384072 -1.51606)
(-0.0132044 -0.00821409 -1.50633)
(-0.0164623 0.00568528 -1.48023)
(-0.0234921 0.0235916 -1.40276)
(0.000412336 -0.0013161 -1.48171)
(0.0300209 0.00264746 -1.39639)
(0.0410424 0.0199001 -1.51964)
(-0.00978721 0.0223136 -1.47832)
(-0.00158808 -0.00245228 -1.48211)
(-0.0104676 0.00682538 -1.4987)
(0.00184398 0.00055448 -1.51185)
(0.00522762 0.0370732 -1.41208)
(0.0138208 -0.00344717 -1.53356)
(-0.00298416 -0.00255288 -1.53306)
(-0.00757638 0.00197479 -1.44564)
(0.0180574 0.011039 -1.44799)
(-0.00123777 -0.00467214 -1.49123)
(0.00532678 -0.00493106 -1.47717)
(-0.00517003 0.0311551 -1.44837)
(-0.0267991 -0.0178644 -1.34109)
(-0.0152333 0.0111332 -1.52872)
(-0.0197628 0.00461799 -1.53321)
(0.028661 0.0111361 -1.47311)
(0.0298597 -0.00212791 -1.41752)
(0.02555 0.021692 -1.44741)
(0.0077996 -0.00906376 -1.51622)
(0.0162373 -0.052787 -1.46358)
(-0.00281281 0.00132304 -1.52032)
(-0.00349719 0.0337635 -1.43465)
(0.0287595 -0.00753635 -1.43446)
(-0.0515528 -0.0322271 -1.44254)
(-0.00560637 0.00359373 -1.53917)
(-0.000725839 0.00212328 -1.45136)
(0.000713901 0.00192432 -1.45091)
(0.00334969 0.00689434 -1.4867)
(-0.00940717 -0.00379386 -1.53758)
(-0.0271184 -0.0310681 -1.46206)
(0.00565823 -0.017227 -1.52768)
(0.00114464 -0.0169181 -1.52222)
(-0.0338138 0.0118231 -1.50095)
(-0.0164583 -0.0211199 -1.48946)
(-0.0116191 0.021725 -1.42376)
(-0.012424 -0.0301903 -1.42872)
(0.0260472 -0.00555051 -1.48584)
(0.00504928 0.0300854 -1.42513)
(0.014071 -0.0107314 -1.49066)
(-0.0273468 0.00738545 -1.48837)
(-0.0233429 0.00498733 -1.48068)
(0.000507863 0.0228284 -1.38123)
(-0.009574 0.00801626 -1.46358)
(-0.0112239 -0.0051867 -1.43793)
(0.0378822 0.0215317 -1.43664)
(0.00167634 0.00105743 -1.45275)
(-0.0263789 0.0153651 -1.55887)
(-0.00366498 -0.00204307 -1.46287)
(-0.00930648 0.00481024 -1.48192)
(0.00692601 -0.00898355 -1.51212)
(-0.00106595 0.0139353 -1.51126)
(-0.0301195 -0.0515449 -1.46589)
(0.00341443 0.00463509 -1.4279)
(0.00748212 -0.00310416 -1.4939)
(0.0057972 -0.00983165 -1.51233)
(-0.0282838 -0.0161623 -1.501)
(-0.00639463 -0.00224131 -1.45401)
(-0.00409698 -0.000499318 -1.46566)
(-0.00462758 0.00328302 -1.45009)
(-0.0248533 0.0307701 -1.3878)
(-0.00590539 0.00208943 -1.46859)
(0.00371427 0.0581821 -1.41718)
(-0.00685591 0.00442124 -1.43682)
(0.010111 0.0264633 -1.42973)
(-0.00276886 -0.000254793 -1.49785)
(0.00840295 0.00615522 -1.38945)
(-0.0240299 0.0256412 -1.48704)
(-0.00971797 -0.00558117 -1.50216)
(-0.0237274 0.0221185 -1.49129)
(-0.0189363 0.0238733 -1.46524)
(0.00571729 -0.0122424 -1.46492)