/*--------------------------------*- C++ -*----------------------------------*\
| =========                 |                                                 |
| \\      /  F ield         | OpenFOAM: The Open Source CFD Toolbox           |
|  \\    /   O peration     | Version:  2312                                  |
|   \\  /    A nd           | Website:  www.openfoam.com                      |
|    \\/     M anipulation  |                                                 |
\*---------------------------------------------------------------------------*/
FoamFile
{
    version     2.0;
    format      ascii;
    arch        "LSB;label=32;scalar=64";
    class       volScalarField;
    location    "900";
    object      alphat;
}
// * * * * * * * * * * * * * * * * * * * * * * * * * * * * * * * * * * * * * //

dimensions      [1 -1 -1 0 0 0 0];

internalField   nonuniform List<scalar> 
27000
(
0.00394746
0.00670084
0.00936328
0.0117498
0.0140701
0.0162354
0.0182004
0.0198598
0.0212868
0.0225061
0.0235192
0.0243259
0.0249221
0.0253177
0.0255156
0.0255166
0.0253207
0.024927
0.0243316
0.0235251
0.0225126
0.0212935
0.0198663
0.0182061
0.0162394
0.0140717
0.0117484
0.0093591
0.00669591
0.00394451
0.00574552
0.00127749
0.0051645
0.00908387
0.0131601
0.017029
0.0206785
0.024067
0.0271325
0.029852
0.0321964
0.0341356
0.0356417
0.0366691
0.0371878
0.0371844
0.0366592
0.0356268
0.0341187
0.0321823
0.0298404
0.0271229
0.0240599
0.0206744
0.0170272
0.0131582
0.00908195
0.00516159
0.00127513
0.00574186
0.00922144
0.00712566
0.0146035
0.0262251
0.0368821
0.0462014
0.0547179
0.0626568
0.069858
0.0761989
0.0816098
0.0860237
0.0894011
0.091687
0.0928361
0.0928276
0.0916636
0.0893697
0.0859964
0.081603
0.0762325
0.0699223
0.0627414
0.0548097
0.0462952
0.0369592
0.0262979
0.0146429
0.00711368
0.00921684
0.0121569
0.0108512
0.0262433
0.0528448
0.0782861
0.0963302
0.109816
0.120833
0.130059
0.137682
0.143899
0.148816
0.152483
0.154921
0.156138
0.156135
0.154915
0.152484
0.148841
0.143965
0.137796
0.13022
0.121022
0.109999
0.0964854
0.0784378
0.0530268
0.0263505
0.0108478
0.0121545
0.0149297
0.0144932
0.0370905
0.0765162
0.113464
0.139239
0.156071
0.16795
0.176782
0.183174
0.188019
0.191767
0.194507
0.196302
0.197192
0.197195
0.196316
0.194537
0.191821
0.188092
0.183223
0.176895
0.168108
0.156238
0.139405
0.113666
0.0767514
0.0372197
0.0144941
0.0149301
0.0174974
0.0184303
0.0479179
0.0956437
0.138205
0.167636
0.185636
0.196975
0.204448
0.209468
0.212925
0.215366
0.21706
0.218138
0.218665
0.21867
0.218155
0.217094
0.215419
0.212996
0.209556
0.204569
0.19712
0.185804
0.167857
0.138449
0.0958937
0.0480503
0.0184326
0.0175001
0.0198353
0.022561
0.058735
0.111881
0.156172
0.185491
0.203143
0.213447
0.21954
0.223214
0.225475
0.226898
0.227797
0.228335
0.22859
0.228595
0.228352
0.227829
0.226947
0.225543
0.223302
0.219649
0.213575
0.203297
0.185685
0.156396
0.112096
0.0588248
0.0225566
0.0198395
0.0219282
0.0267382
0.0691937
0.125867
0.170222
0.197694
0.21367
0.222521
0.227314
0.229879
0.231241
0.231959
0.232336
0.232527
0.23261
0.232616
0.232544
0.232366
0.232005
0.231304
0.229959
0.227407
0.222628
0.213795
0.197839
0.170365
0.126015
0.0692495
0.0267302
0.0219332
0.0237425
0.0308462
0.0789567
0.137799
0.181206
0.206332
0.22025
0.227539
0.231167
0.232868
0.233597
0.233862
0.233926
0.233921
0.233908
0.233914
0.233938
0.233956
0.233906
0.233653
0.232935
0.231242
0.22762
0.220336
0.20642
0.181275
0.137877
0.0789753
0.0308322
0.0237495
0.0252954
0.0347254
0.0878169
0.147784
0.188943
0.212279
0.224411
0.230333
0.233007
0.234066
0.234374
0.234367
0.234262
0.234158
0.234101
0.234106
0.234174
0.234288
0.234404
0.234419
0.234116
0.233059
0.230384
0.224459
0.212325
0.188983
0.147804
0.0878014
0.0347067
0.0253022
0.0265884
0.0382197
0.0955618
0.156151
0.195369
0.216621
0.227131
0.231916
0.23385
0.234453
0.234494
0.234338
0.234153
0.234011
0.233937
0.233942
0.234024
0.234175
0.234366
0.234525
0.234484
0.233876
0.231936
0.227142
0.216625
0.19536
0.156121
0.0955176
0.0381976
0.0265947
0.0276218
0.0411936
0.101979
0.162846
0.20038
0.219818
0.228958
0.232838
0.234219
0.234511
0.234389
0.234158
0.233946
0.233797
0.233723
0.233727
0.233807
0.233961
0.234176
0.234405
0.234522
0.234222
0.232828
0.228936
0.219783
0.200329
0.162776
0.101912
0.0411686
0.0276275
0.028396
0.0435317
0.106918
0.167903
0.204048
0.222071
0.230167
0.23338
0.234373
0.234462
0.234246
0.233984
0.23377
0.233627
0.233559
0.233561
0.233633
0.233778
0.233992
0.234249
0.234456
0.234356
0.233348
0.23012
0.222007
0.203966
0.1678
0.106836
0.0435045
0.0284013
0.0289116
0.0451429
0.110269
0.171298
0.206449
0.223506
0.230907
0.233684
0.234433
0.2344
0.234136
0.233864
0.233655
0.233522
0.233459
0.23346
0.233525
0.233658
0.233864
0.23413
0.234383
0.234402
0.233638
0.230844
0.223426
0.206352
0.171185
0.11018
0.0451146
0.0289166
0.0291689
0.0459648
0.111962
0.172993
0.207633
0.224203
0.231259
0.233822
0.234454
0.234364
0.23408
0.233805
0.233601
0.233474
0.233415
0.233416
0.233476
0.233602
0.233801
0.234068
0.234341
0.234416
0.233768
0.231188
0.224117
0.207531
0.17288
0.111871
0.0459359
0.0291738
0.0291682
0.0459657
0.111966
0.172994
0.207633
0.224202
0.231258
0.233822
0.234454
0.234365
0.234081
0.233807
0.233603
0.233476
0.233417
0.233417
0.233477
0.233603
0.233803
0.234069
0.234342
0.234417
0.233769
0.231189
0.224117
0.207532
0.172881
0.111875
0.0459367
0.0291732
0.0289096
0.0451455
0.11028
0.1713
0.206449
0.223505
0.230906
0.233684
0.234434
0.234403
0.234139
0.233867
0.233659
0.233525
0.233463
0.233464
0.233529
0.233662
0.233867
0.234133
0.234386
0.234404
0.233639
0.230845
0.223428
0.206355
0.171191
0.110193
0.0451168
0.0289148
0.0283928
0.0435358
0.106937
0.167911
0.204052
0.22207
0.230166
0.233379
0.234374
0.234464
0.23425
0.233988
0.233773
0.23363
0.233561
0.233564
0.233636
0.233781
0.233995
0.234253
0.234459
0.234357
0.233348
0.23012
0.22201
0.203974
0.167811
0.106857
0.043508
0.0283983
0.0276177
0.0411987
0.102008
0.16287
0.200393
0.219821
0.228957
0.232836
0.234219
0.234512
0.23439
0.23416
0.233947
0.233796
0.233722
0.233725
0.233806
0.233961
0.234176
0.234406
0.234522
0.234221
0.232826
0.228934
0.219786
0.200342
0.1628
0.101941
0.0411727
0.0276235
0.0265836
0.0382252
0.0955992
0.156189
0.195391
0.21663
0.227132
0.231915
0.233848
0.234451
0.234491
0.234333
0.234146
0.234002
0.233928
0.233932
0.234015
0.234167
0.234359
0.23452
0.234479
0.233871
0.23193
0.227138
0.216627
0.195376
0.156153
0.0955523
0.0382018
0.0265897
0.0252902
0.0347302
0.0878613
0.147835
0.188976
0.212294
0.224415
0.230332
0.233003
0.234059
0.234363
0.234353
0.234244
0.234137
0.234079
0.234084
0.234154
0.23427
0.234388
0.234405
0.234104
0.233047
0.230374
0.224452
0.212327
0.189
0.147842
0.0878383
0.0347102
0.0252964
0.0237372
0.0308497
0.079006
0.137864
0.18124
0.206355
0.220261
0.227541
0.231161
0.232855
0.233577
0.233836
0.233895
0.233886
0.233872
0.233878
0.233904
0.233925
0.233879
0.23363
0.232916
0.231227
0.227609
0.220331
0.206424
0.18129
0.137917
0.0790108
0.0308335
0.0237432
0.0219231
0.0267397
0.0692471
0.125953
0.170278
0.197738
0.213695
0.222531
0.22731
0.229862
0.231213
0.231922
0.232292
0.23248
0.232561
0.232567
0.232499
0.232325
0.23197
0.231274
0.229936
0.227394
0.222624
0.2138
0.197856
0.170393
0.126065
0.0692838
0.0267283
0.0219279
0.0198313
0.0225609
0.0587959
0.111995
0.156275
0.185564
0.203189
0.213471
0.219542
0.223196
0.225442
0.226855
0.227748
0.228281
0.228534
0.228541
0.228301
0.227784
0.226909
0.225512
0.223281
0.219645
0.213587
0.203324
0.185728
0.156459
0.112168
0.0588658
0.0225547
0.0198342
0.0174935
0.0184331
0.0479974
0.0957783
0.138334
0.167729
0.185708
0.197018
0.204458
0.209447
0.212894
0.215329
0.217017
0.218089
0.218615
0.218622
0.218112
0.217058
0.215391
0.212973
0.209539
0.20458
0.197159
0.185868
0.167929
0.138545
0.0959858
0.0481063
0.0184338
0.0174949
0.0149259
0.0144927
0.03716
0.0766527
0.11361
0.139363
0.156172
0.168002
0.17679
0.18313
0.188007
0.191752
0.194483
0.196272
0.19716
0.197166
0.196293
0.194525
0.191819
0.188093
0.183197
0.176913
0.168165
0.156346
0.139535
0.113802
0.076857
0.0372684
0.0144925
0.0149253
0.0121531
0.0108473
0.0262954
0.052959
0.0784146
0.0964603
0.109943
0.120944
0.130143
0.137735
0.143927
0.148823
0.152478
0.154912
0.156128
0.156129
0.154918
0.152497
0.148869
0.144013
0.137859
0.130307
0.121136
0.110134
0.096628
0.0785727
0.0531277
0.0263877
0.0108439
0.0121503
0.00921811
0.00712006
0.0146184
0.0262702
0.0369436
0.0462752
0.0547838
0.0627187
0.0699109
0.0762363
0.0816235
0.0860287
0.0894045
0.0916919
0.0928441
0.0928396
0.0916801
0.0893911
0.0860247
0.0816462
0.0762871
0.0699849
0.0628105
0.0548827
0.0463747
0.037025
0.0263408
0.0146529
0.0071104
0.00921392
0.00574352
0.00127639
0.00516107
0.00908125
0.0131589
0.0170291
0.0206776
0.0240653
0.0271304
0.0298493
0.0321928
0.0341332
0.0356407
0.0366696
0.0371898
0.0371876
0.0366633
0.0356314
0.0341231
0.0321856
0.029844
0.0271266
0.0240637
0.0206792
0.017031
0.0131591
0.00907999
0.00515802
0.0012743
0.00573952
0.00394603
0.0066983
0.00936046
0.0117472
0.0140678
0.0162332
0.0181983
0.0198575
0.0212843
0.0225033
0.0235159
0.0243215
0.024917
0.0253122
0.0255097
0.0255104
0.0253143
0.0249204
0.0243257
0.0235198
0.0225075
0.0212885
0.0198615
0.0182015
0.0162352
0.014068
0.0117453
0.00935655
0.00669408
0.00394349
0.00357565
0.00611045
0.00870671
0.0110626
0.0134152
0.0156395
0.0176925
0.019464
0.021009
0.0223318
0.0234364
0.0243248
0.0250071
0.0254644
0.0256928
0.0256914
0.02546
0.0249999
0.0243163
0.0234279
0.0223216
0.0209935
0.0194478
0.0176791
0.0156313
0.0134139
0.0110687
0.00871859
0.00612455
0.00358438
0.00514538
0.00164362
0.00751661
0.0111266
0.0147155
0.0177175
0.020285
0.0227098
0.0248218
0.0266424
0.0281742
0.0294086
0.0303285
0.030941
0.0312487
0.0312505
0.030946
0.0303351
0.029414
0.0281742
0.0266361
0.0248156
0.0227085
0.0203225
0.0177807
0.0147766
0.0111736
0.00754307
0.00166128
0.00515939
0.00871579
0.0103813
0.0132243
0.0166248
0.0217704
0.0272165
0.0322489
0.0367246
0.0408302
0.0445029
0.0475335
0.049989
0.0518515
0.0531093
0.0537551
0.0537833
0.0531927
0.0519854
0.05016
0.0477044
0.044528
0.0408051
0.0366733
0.0321836
0.0271325
0.0217095
0.016583
0.0132343
0.0104761
0.00873173
0.0115841
0.013574
0.0178187
0.0253555
0.0352809
0.0458743
0.0554708
0.0639711
0.0715405
0.0784259
0.0842545
0.0889033
0.0923616
0.0946646
0.0958408
0.0959037
0.0948487
0.092651
0.089262
0.0846122
0.0786871
0.0716788
0.0639685
0.0553664
0.0457203
0.0351165
0.0252503
0.0178159
0.013658
0.011593
0.0144212
0.0160362
0.0225898
0.035292
0.0532979
0.072182
0.0884297
0.101562
0.112285
0.12152
0.129122
0.134963
0.139087
0.14175
0.143073
0.143105
0.141841
0.139225
0.13513
0.129318
0.121688
0.112291
0.101393
0.0881146
0.0718448
0.0530311
0.0351305
0.0224975
0.0161091
0.0144212
0.0171245
0.0182235
0.0283525
0.0463784
0.0718913
0.0981764
0.120564
0.137131
0.149147
0.158384
0.165577
0.171006
0.174845
0.177291
0.178488
0.1785
0.177326
0.174893
0.171054
0.165607
0.158354
0.149022
0.136908
0.120182
0.0977454
0.0715524
0.0462186
0.0282358
0.0182847
0.0171175
0.0196346
0.0205596
0.033762
0.0577773
0.0896578
0.120913
0.145667
0.163337
0.175654
0.184406
0.190766
0.195364
0.19855
0.200553
0.20152
0.201523
0.200558
0.19855
0.19535
0.190725
0.184325
0.175528
0.163161
0.145418
0.120586
0.0894416
0.0577201
0.0337088
0.0205594
0.0196258
0.0219272
0.0230519
0.0389344
0.0686355
0.105272
0.138817
0.163939
0.181496
0.193371
0.201384
0.206855
0.210601
0.213101
0.214635
0.215363
0.21536
0.214623
0.213076
0.210558
0.20679
0.201297
0.193267
0.181374
0.163796
0.138679
0.105257
0.0687373
0.0389137
0.0230461
0.021918
0.0240288
0.0253819
0.0439013
0.0788017
0.118652
0.152629
0.177214
0.193931
0.204912
0.212021
0.21662
0.219598
0.221491
0.222612
0.223132
0.223126
0.222592
0.221454
0.219544
0.216552
0.211943
0.204834
0.193859
0.177159
0.152629
0.118792
0.0790081
0.0439115
0.0253822
0.0240165
0.0258734
0.0274785
0.0484033
0.0876125
0.130047
0.163469
0.186956
0.202491
0.212386
0.218544
0.222331
0.224646
0.226038
0.226825
0.227178
0.22717
0.226802
0.226
0.224595
0.222273
0.218487
0.21234
0.202466
0.186963
0.163533
0.130202
0.0878562
0.0484412
0.0274864
0.0258619
0.0274377
0.0293064
0.0523161
0.0948303
0.138569
0.171643
0.194046
0.208394
0.217225
0.222497
0.225576
0.227344
0.228339
0.228868
0.229095
0.229088
0.228848
0.228307
0.227306
0.225538
0.22247
0.217217
0.208416
0.194107
0.171757
0.138759
0.0950834
0.0523789
0.0293217
0.0274274
0.0287063
0.0308266
0.0555658
0.100566
0.145016
0.177654
0.199109
0.212426
0.220341
0.22487
0.227374
0.228715
0.229411
0.229752
0.229889
0.229884
0.229738
0.229391
0.228695
0.227362
0.224875
0.220374
0.212493
0.199217
0.177811
0.145229
0.100809
0.0556485
0.0308482
0.028697
0.0296676
0.0320027
0.0580856
0.10492
0.14973
0.181917
0.202594
0.215099
0.222304
0.226266
0.228342
0.229374
0.22986
0.230071
0.230147
0.230144
0.230065
0.229853
0.229373
0.228354
0.226302
0.222371
0.215202
0.202736
0.1821
0.149949
0.105138
0.0581803
0.0320294
0.0296589
0.0303131
0.0328048
0.0598122
0.107871
0.152845
0.184666
0.204787
0.216732
0.223456
0.227039
0.228833
0.229668
0.23002
0.230152
0.230191
0.23019
0.230151
0.230024
0.229682
0.228865
0.227097
0.223546
0.216859
0.20495
0.184862
0.153063
0.108072
0.0599085
0.0328342
0.0303048
0.0306376
0.0332107
0.0606884
0.109357
0.154398
0.186019
0.205849
0.217508
0.223988
0.227382
0.229037
0.229774
0.230063
0.230156
0.230178
0.230178
0.230159
0.230073
0.229797
0.22908
0.227451
0.224091
0.217646
0.206021
0.186219
0.154612
0.109547
0.0607848
0.0332411
0.0306294
0.0306384
0.0332081
0.060686
0.109362
0.154404
0.186024
0.205854
0.21751
0.223988
0.227379
0.229033
0.229769
0.230057
0.23015
0.230172
0.230173
0.230154
0.230068
0.229792
0.229076
0.227449
0.22409
0.217646
0.206023
0.186221
0.154614
0.109548
0.0607808
0.0332384
0.0306301
0.0303154
0.0327973
0.059805
0.107885
0.152863
0.184683
0.204799
0.216738
0.223455
0.227033
0.228823
0.229655
0.230006
0.230137
0.230176
0.230176
0.230137
0.230011
0.22967
0.228856
0.227091
0.223545
0.216861
0.204956
0.184869
0.153069
0.108075
0.0598962
0.0328259
0.0303068
0.0296712
0.0319903
0.0580723
0.104944
0.14976
0.181944
0.202614
0.21511
0.222305
0.226258
0.228328
0.229357
0.229841
0.230052
0.230128
0.230126
0.230047
0.229837
0.229359
0.228344
0.226296
0.222371
0.215209
0.202748
0.182113
0.14996
0.105141
0.0581578
0.0320158
0.0296622
0.0287111
0.0308098
0.0555422
0.100605
0.145057
0.177691
0.199136
0.212442
0.220346
0.224865
0.227362
0.228701
0.229395
0.229737
0.229874
0.229869
0.229725
0.229379
0.228685
0.227355
0.224875
0.220381
0.212508
0.199237
0.177833
0.145247
0.10082
0.0556191
0.0308309
0.0287016
0.0274433
0.0292867
0.0522849
0.0948806
0.138619
0.171687
0.194081
0.208417
0.217236
0.2225
0.225574
0.22734
0.228335
0.228866
0.229094
0.229088
0.228848
0.228307
0.227307
0.225543
0.22248
0.217236
0.208443
0.19414
0.171789
0.138782
0.0950967
0.0523436
0.0293018
0.0274332
0.0258795
0.0274575
0.0483688
0.0876752
0.130107
0.16352
0.186997
0.202521
0.212407
0.218559
0.222346
0.224662
0.226057
0.226847
0.227202
0.227194
0.226825
0.226021
0.224616
0.222295
0.218513
0.212373
0.202507
0.187009
0.163574
0.130231
0.0878724
0.0484053
0.0274661
0.0258689
0.0240351
0.0253618
0.043867
0.0788737
0.118734
0.152687
0.177261
0.19397
0.204946
0.212055
0.216659
0.219642
0.221542
0.222668
0.22319
0.223183
0.222646
0.221505
0.219592
0.216597
0.211989
0.204883
0.193915
0.177217
0.15268
0.118829
0.0790283
0.0438793
0.0253642
0.0240245
0.0219335
0.0230358
0.0389012
0.0686976
0.105341
0.138863
0.163985
0.181543
0.193421
0.201442
0.206925
0.210683
0.213191
0.214729
0.215459
0.215454
0.214713
0.213161
0.210636
0.206862
0.201363
0.193331
0.181441
0.163864
0.13874
0.105303
0.0687606
0.0388853
0.023034
0.0219245
0.0196392
0.0205529
0.033723
0.0577904
0.0897034
0.120947
0.145711
0.16339
0.175721
0.184495
0.190876
0.195489
0.198683
0.200689
0.201656
0.201655
0.200683
0.198668
0.19546
0.190827
0.184415
0.175606
0.163235
0.145494
0.120657
0.0894997
0.057727
0.0336756
0.0205548
0.019633
0.0171329
0.018265
0.0282792
0.0463701
0.0719218
0.0982149
0.120611
0.137197
0.149244
0.158527
0.165747
0.171184
0.175026
0.177472
0.178665
0.178671
0.177489
0.175045
0.171198
0.165747
0.158482
0.149122
0.136994
0.120273
0.0978363
0.071618
0.0462254
0.028175
0.018324
0.0171295
0.0144308
0.0160756
0.0225429
0.0352936
0.0533152
0.0722356
0.088515
0.101675
0.112463
0.121783
0.129385
0.135212
0.139335
0.141994
0.14331
0.143332
0.142057
0.139426
0.135317
0.129507
0.121893
0.112448
0.101514
0.0882375
0.0719342
0.053085
0.0351573
0.0224608
0.0161432
0.0144334
0.0115945
0.0136138
0.0178383
0.025337
0.0352894
0.0458944
0.0555086
0.0640473
0.0716919
0.0786539
0.0845611
0.0892434
0.092703
0.0949948
0.0961565
0.0962048
0.0951354
0.0929202
0.0895007
0.0848006
0.078845
0.0718033
0.0640375
0.0554163
0.0457621
0.0351532
0.0252459
0.0178414
0.013691
0.0116041
0.00872541
0.0104154
0.0132373
0.0166026
0.0217295
0.027156
0.0322091
0.0366902
0.0408087
0.0445153
0.0476616
0.0501354
0.0519956
0.0532467
0.0538857
0.053908
0.0533125
0.052099
0.0502569
0.0477189
0.0445111
0.0407787
0.0366424
0.0321502
0.0270782
0.0216722
0.0165644
0.013246
0.0104921
0.00873924
0.00515245
0.00164863
0.00753026
0.0111487
0.014748
0.017752
0.0202997
0.0226958
0.0248016
0.0266207
0.0281534
0.0293845
0.0303013
0.0309114
0.0312171
0.0312177
0.030913
0.0303029
0.029384
0.0281463
0.0266091
0.0247908
0.0226935
0.0203522
0.017814
0.0148037
0.0111903
0.00755456
0.00166487
0.00516492
0.00357955
0.00611668
0.00871349
0.011069
0.013421
0.0156443
0.0176963
0.0194674
0.0210129
0.0223346
0.0234395
0.0243298
0.025013
0.0254709
0.0256999
0.0256988
0.0254679
0.0250081
0.0243235
0.023434
0.0223281
0.0210033
0.0194579
0.0176898
0.0156421
0.0134236
0.0110767
0.0087249
0.00612897
0.00358718
0.00335182
0.00570515
0.0082344
0.0105747
0.0129321
0.0151637
0.0172124
0.0189654
0.0204918
0.0218209
0.0229398
0.0238403
0.0245121
0.0249612
0.0251867
0.0251878
0.0249643
0.0245171
0.0238465
0.022946
0.0218277
0.0205025
0.0189754
0.0172183
0.0151632
0.0129247
0.010561
0.00821692
0.00568583
0.00333927
0.00485103
0.00244574
0.0106341
0.0158372
0.0208821
0.025406
0.0292956
0.0323115
0.0346283
0.0363684
0.0376731
0.038643
0.0393426
0.039799
0.0400243
0.0400236
0.0397974
0.0393408
0.0386426
0.0376732
0.0363678
0.0346251
0.0323037
0.0292418
0.0253152
0.0207871
0.015762
0.0105945
0.00238957
0.00482984
0.00825533
0.0128655
0.0172873
0.0211119
0.024071
0.0271075
0.0301387
0.0330806
0.0358539
0.0382336
0.0402721
0.0419158
0.0431584
0.0439959
0.0444244
0.0444413
0.0440478
0.0432457
0.0420381
0.04043
0.0384744
0.0361104
0.0333039
0.0302
0.0271321
0.0240957
0.0211388
0.0172587
0.0127085
0.00823047
0.0110385
0.0180055
0.0232421
0.024984
0.0288612
0.0347683
0.041563
0.0478764
0.0532604
0.0575541
0.0611625
0.064126
0.0664079
0.0679455
0.0687068
0.0686785
0.0678625
0.0662765
0.0639605
0.0609923
0.0574398
0.0532518
0.0479666
0.0416519
0.0347472
0.0289308
0.0250274
0.0231756
0.0178662
0.0110196
0.0137898
0.021968
0.026361
0.0296511
0.0383237
0.0511567
0.0631626
0.0726078
0.0802056
0.0864079
0.0914616
0.0955164
0.0988403
0.101112
0.102252
0.102243
0.101086
0.0988017
0.0954622
0.091343
0.086391
0.08034
0.0728689
0.0633564
0.0510996
0.0382131
0.0296847
0.0263417
0.0218514
0.0137821
0.0164302
0.0254618
0.0286145
0.0360549
0.0514973
0.070133
0.088154
0.102453
0.113803
0.122461
0.129052
0.134039
0.13774
0.140201
0.141426
0.141424
0.140197
0.137745
0.134065
0.129124
0.122654
0.114144
0.102922
0.0887691
0.0703585
0.0516221
0.0361602
0.0286412
0.0253799
0.0164333
0.0189114
0.028213
0.0311477
0.0438125
0.0641474
0.0884074
0.111632
0.129908
0.14326
0.152947
0.159963
0.165018
0.168558
0.17082
0.17193
0.171946
0.170871
0.168653
0.165171
0.160186
0.153246
0.143616
0.130317
0.112145
0.088921
0.064383
0.0438806
0.0313176
0.0282052
0.0189198
0.0211985
0.0303296
0.0343997
0.0510634
0.0753692
0.104507
0.130908
0.150791
0.164996
0.174988
0.181952
0.186752
0.189964
0.191944
0.192899
0.192923
0.192018
0.190092
0.186938
0.182192
0.175268
0.165298
0.151107
0.131224
0.104748
0.0754057
0.05099
0.0345789
0.0303267
0.02121
0.0232361
0.0320146
0.0377261
0.0572804
0.085195
0.118361
0.145894
0.166137
0.180377
0.19017
0.196796
0.201199
0.204031
0.205718
0.206515
0.20654
0.205793
0.204155
0.201369
0.197002
0.190394
0.180599
0.166339
0.146045
0.118353
0.0849617
0.0571092
0.0378773
0.0320137
0.0232516
0.0250271
0.0333931
0.0409637
0.063199
0.0949677
0.129898
0.15744
0.177336
0.191119
0.200416
0.206547
0.210492
0.21294
0.214351
0.215002
0.215023
0.214414
0.213042
0.210624
0.206699
0.20057
0.191257
0.17744
0.15748
0.129811
0.0946992
0.0629898
0.0410682
0.0333944
0.0250438
0.0265532
0.0345238
0.0439092
0.0684907
0.103505
0.138954
0.166147
0.185414
0.198539
0.207223
0.212811
0.2163
0.218392
0.219557
0.220081
0.220097
0.219603
0.218463
0.216387
0.212902
0.207303
0.198593
0.185425
0.166091
0.138787
0.103193
0.068272
0.0439592
0.0345273
0.0265706
0.0277969
0.0354367
0.0464266
0.0729267
0.110389
0.145882
0.172546
0.191126
0.203576
0.211658
0.216739
0.219821
0.221608
0.22257
0.22299
0.223
0.222598
0.221648
0.219863
0.216772
0.211669
0.203552
0.191053
0.172405
0.145646
0.110055
0.0727155
0.0464229
0.0354426
0.0278147
0.0287427
0.0361339
0.048409
0.0763005
0.115521
0.150905
0.177046
0.195013
0.206881
0.214454
0.219117
0.221874
0.223424
0.224231
0.224572
0.224577
0.224242
0.223437
0.221879
0.219103
0.21441
0.206794
0.194874
0.176843
0.150626
0.11519
0.0761151
0.04837
0.0361434
0.028761
0.0293791
0.0366052
0.0497499
0.0785437
0.118907
0.154173
0.179919
0.197436
0.20888
0.216091
0.220459
0.22299
0.224379
0.225082
0.22537
0.225371
0.225082
0.224373
0.222968
0.220412
0.216007
0.208752
0.197254
0.17968
0.153878
0.11859
0.0783872
0.0497296
0.0366186
0.0293977
0.0296984
0.036843
0.0504319
0.0796697
0.120588
0.155786
0.181323
0.198603
0.209828
0.216849
0.221066
0.223483
0.22479
0.22544
0.225702
0.225701
0.225434
0.224773
0.223448
0.221003
0.216747
0.209679
0.198404
0.181071
0.155489
0.120284
0.0795291
0.0504147
0.0368579
0.0297173
0.0296968
0.0368406
0.0504324
0.0796659
0.120589
0.15579
0.181329
0.198612
0.209839
0.216861
0.221079
0.223495
0.224801
0.225451
0.225713
0.225712
0.225445
0.224785
0.22346
0.221016
0.216761
0.209693
0.198416
0.181083
0.155499
0.120292
0.0795279
0.050416
0.0368552
0.0297158
0.0293744
0.0365981
0.0497522
0.0785331
0.118908
0.154184
0.179939
0.197462
0.208912
0.216125
0.220494
0.223025
0.224412
0.225112
0.2254
0.225401
0.225113
0.224406
0.223005
0.22045
0.216047
0.208791
0.197292
0.179715
0.153909
0.118614
0.0783874
0.0497364
0.0366113
0.0293933
0.0287352
0.0361222
0.0484207
0.076289
0.115526
0.150924
0.17708
0.195058
0.206932
0.21451
0.219173
0.221927
0.223474
0.224277
0.224617
0.224621
0.224289
0.223488
0.221934
0.219162
0.214471
0.206855
0.194933
0.176899
0.150678
0.115234
0.0761282
0.0484058
0.0361318
0.0287536
0.0277868
0.035423
0.0464919
0.0729214
0.1104
0.145914
0.172596
0.191188
0.203645
0.21173
0.216809
0.219887
0.221669
0.222626
0.223042
0.223052
0.222653
0.221709
0.219931
0.216845
0.211746
0.20363
0.191129
0.172478
0.145716
0.110119
0.0727363
0.046483
0.0354276
0.0278045
0.0265412
0.0345099
0.04401
0.0684879
0.10352
0.138997
0.166214
0.185493
0.198623
0.207307
0.212891
0.216372
0.218456
0.219614
0.220133
0.220148
0.219658
0.218525
0.216458
0.212981
0.207388
0.198681
0.185514
0.166177
0.138869
0.103275
0.068309
0.0440517
0.0345106
0.0265578
0.0250137
0.0333795
0.0410844
0.0631876
0.094975
0.129949
0.157524
0.177429
0.191213
0.200507
0.20663
0.210563
0.212999
0.2144
0.215045
0.215065
0.21446
0.213097
0.210691
0.206776
0.200657
0.19135
0.177536
0.157577
0.129901
0.0947839
0.0630311
0.0411725
0.0333775
0.0250288
0.023222
0.0320022
0.0378566
0.057257
0.0851791
0.118423
0.145992
0.166239
0.180476
0.190261
0.196875
0.201261
0.204078
0.205753
0.206543
0.206567
0.205825
0.204197
0.201424
0.197071
0.190477
0.180692
0.166437
0.146149
0.118465
0.0850425
0.0571425
0.037982
0.0319978
0.0232348
0.0211842
0.030319
0.0345291
0.0510434
0.0753766
0.1046
0.131022
0.150903
0.165096
0.175073
0.182019
0.186798
0.189991
0.191959
0.192907
0.192932
0.192034
0.190118
0.186978
0.182249
0.175342
0.165389
0.151206
0.131325
0.104856
0.0754547
0.0510095
0.034677
0.0303128
0.0211934
0.0188981
0.028204
0.0312601
0.0438458
0.0641868
0.0885321
0.111773
0.130016
0.143347
0.153011
0.159999
0.165032
0.168558
0.170813
0.171922
0.171942
0.170874
0.168666
0.165195
0.160223
0.1533
0.14369
0.130411
0.112264
0.08903
0.0644216
0.0439113
0.0314017
0.0281955
0.018903
0.0164135
0.0254102
0.0286414
0.0361284
0.0515558
0.0701999
0.0882659
0.102538
0.113844
0.122453
0.129008
0.133997
0.137706
0.140174
0.141407
0.141413
0.140196
0.137749
0.134068
0.129121
0.122663
0.114178
0.10299
0.0888556
0.070473
0.0517085
0.0362215
0.0286638
0.0253351
0.016413
0.0137723
0.0219109
0.0263539
0.029644
0.0383494
0.0511749
0.0631948
0.0726174
0.0801533
0.0862997
0.0913181
0.0954326
0.0987769
0.10106
0.102208
0.102205
0.101054
0.0987707
0.0954236
0.0912661
0.0863228
0.0802934
0.072873
0.0634221
0.0512076
0.0382931
0.0296648
0.0263238
0.0218021
0.0137632
0.0110212
0.0179462
0.0231955
0.0249825
0.0288713
0.0348216
0.0416543
0.0479107
0.0532257
0.0574568
0.0610358
0.0640011
0.0662944
0.0678449
0.0686176
0.0685983
0.0677883
0.0662055
0.0638918
0.0609281
0.0573773
0.0532002
0.047984
0.0417359
0.034825
0.0289287
0.0250087
0.0231187
0.0177885
0.0110029
0.00824012
0.0128075
0.0172638
0.0211189
0.0240832
0.0271275
0.0301696
0.033209
0.0360062
0.0383886
0.0403886
0.0420317
0.0432753
0.0441125
0.04454
0.0445555
0.0441588
0.0433517
0.0421388
0.0405519
0.0385914
0.0362156
0.0333929
0.0302224
0.0271535
0.0241052
0.0211395
0.0172387
0.0126758
0.00821918
0.00484007
0.002429
0.0106173
0.0158065
0.0208374
0.0253581
0.0292676
0.0323114
0.0346278
0.0363651
0.0376672
0.0386363
0.0393348
0.0397903
0.0400152
0.0400145
0.0397886
0.0393324
0.0386343
0.0376661
0.0363633
0.0346236
0.032301
0.0292053
0.0252761
0.0207568
0.0157437
0.0105838
0.00238233
0.00482214
0.00334562
0.00569481
0.00822242
0.0105617
0.0129187
0.0151506
0.0172
0.0189532
0.0204787
0.0218085
0.0229267
0.0238256
0.0244963
0.0249446
0.0251694
0.0251698
0.024946
0.0244986
0.0238283
0.0229285
0.0218101
0.020482
0.0189553
0.0171984
0.0151442
0.0129078
0.0105469
0.008206
0.00567812
0.00333498
0.00334816
0.00567504
0.00814712
0.0104449
0.0127293
0.0148812
0.0168582
0.0185543
0.0200326
0.021311
0.0223841
0.0232471
0.0238964
0.0243303
0.0245473
0.0245469
0.024329
0.0238945
0.0232449
0.0223823
0.021311
0.0200358
0.0185621
0.0168715
0.0149005
0.0127525
0.0104695
0.00816895
0.00569732
0.0033622
0.00488417
0.00315382
0.0120447
0.018538
0.0246741
0.0301256
0.0348333
0.0387322
0.0418877
0.0444069
0.0463859
0.0479007
0.0490011
0.0497199
0.0500771
0.0500826
0.0497367
0.0490304
0.0479457
0.0464538
0.0445051
0.0420168
0.0389047
0.0350364
0.030305
0.0247852
0.018581
0.0120477
0.00323031
0.00490588
0.00822877
0.0143617
0.0195051
0.0250618
0.0300446
0.0347806
0.0390671
0.042678
0.0454266
0.0475121
0.0490895
0.0502649
0.0510998
0.0516377
0.0519013
0.0518998
0.0516335
0.0510956
0.0502699
0.0491387
0.0476217
0.0455654
0.0428194
0.0392329
0.0348493
0.0299899
0.024949
0.0194722
0.0144373
0.00824967
0.0109795
0.0207239
0.0275092
0.0306757
0.033694
0.0370722
0.0402379
0.04345
0.0466632
0.0498225
0.0527977
0.0555169
0.0577096
0.05923
0.0599851
0.0599309
0.0590689
0.0574518
0.0552082
0.0526808
0.0498635
0.0467463
0.0435231
0.0402715
0.0370759
0.0335529
0.0305489
0.0275588
0.0208512
0.0109997
0.0136471
0.0259865
0.0327848
0.0353046
0.0379654
0.0440624
0.0513316
0.0585166
0.0649747
0.0707479
0.0760785
0.0806609
0.0841654
0.0865633
0.0877691
0.0877381
0.0864671
0.0839869
0.0803229
0.0755992
0.0702953
0.0647214
0.0585024
0.0514119
0.0442132
0.0381398
0.0353314
0.03294
0.0261298
0.0136635
0.0161984
0.0306743
0.0367259
0.0386148
0.0438795
0.0554101
0.0673661
0.0787709
0.0885986
0.0969789
0.104277
0.110303
0.114862
0.117911
0.119444
0.119455
0.117932
0.114849
0.110189
0.104035
0.0966764
0.0882765
0.07845
0.0669953
0.0554069
0.0441388
0.038733
0.0369387
0.0308491
0.016206
0.0185811
0.0346272
0.0395718
0.0413368
0.0518341
0.0676497
0.0841029
0.100333
0.114721
0.126242
0.135266
0.141944
0.146747
0.149876
0.151421
0.151412
0.149838
0.146645
0.141735
0.134912
0.125791
0.114242
0.0999709
0.0836578
0.0674235
0.0518546
0.0414875
0.0397218
0.0347811
0.0185791
0.0207747
0.0380049
0.041446
0.04469
0.0608029
0.0803572
0.101303
0.121925
0.138656
0.150965
0.160053
0.166642
0.171245
0.174175
0.175596
0.175576
0.174108
0.171115
0.166431
0.15976
0.150617
0.138267
0.121482
0.100963
0.0801973
0.0607
0.0448055
0.0415645
0.0380924
0.0207641
0.0227536
0.0408899
0.0429905
0.0490649
0.0696501
0.092254
0.117509
0.139856
0.156861
0.169238
0.178119
0.1844
0.188686
0.191361
0.19264
0.192618
0.191295
0.188571
0.184234
0.177915
0.169016
0.156636
0.139638
0.117316
0.0922815
0.0697749
0.0489031
0.0430547
0.0409351
0.0227379
0.0244941
0.0432838
0.0443825
0.0539056
0.0771859
0.103086
0.131035
0.153475
0.170223
0.182257
0.190751
0.196641
0.20058
0.202995
0.204135
0.204117
0.202941
0.200493
0.196528
0.190626
0.182136
0.170118
0.153391
0.131
0.103199
0.0773331
0.0536382
0.0444195
0.0433011
0.0244768
0.0259765
0.0452135
0.0456243
0.0585794
0.0837653
0.112849
0.141498
0.163673
0.179889
0.191399
0.199414
0.20488
0.20847
0.210635
0.211647
0.211633
0.210597
0.208413
0.204813
0.199351
0.191355
0.179876
0.163701
0.141603
0.113076
0.0839509
0.0583564
0.0456604
0.0452123
0.0259577
0.0271834
0.0467167
0.0466941
0.0624558
0.0890696
0.120605
0.149359
0.171111
0.186746
0.197704
0.205234
0.21029
0.213556
0.215494
0.216391
0.216383
0.215471
0.213524
0.210262
0.205222
0.197722
0.186808
0.171235
0.149573
0.120934
0.0893466
0.0624525
0.04674
0.0466993
0.0271634
0.0281017
0.0478307
0.0475935
0.0653143
0.0929549
0.126223
0.154937
0.176277
0.191409
0.20189
0.209001
0.213707
0.216699
0.218451
0.219255
0.219251
0.218441
0.216691
0.21371
0.209029
0.201957
0.19153
0.176469
0.155221
0.126602
0.0932585
0.0653475
0.0476354
0.0477971
0.0280804
0.0287208
0.0485806
0.0484473
0.0672843
0.0955056
0.129838