/*--------------------------------*- C++ -*----------------------------------*\
| =========                 |                                                 |
| \\      /  F ield         | OpenFOAM: The Open Source CFD Toolbox           |
|  \\    /   O peration     | Version:  2312                                  |
|   \\  /    A nd           | Website:  www.openfoam.com                      |
|    \\/     M anipulation  |                                                 |
\*---------------------------------------------------------------------------*/
FoamFile
{
    version     2.0;
    format      ascii;
    arch        "LSB;label=32;scalar=64";
    class       volScalarField;
    location    "900";
    object      epsilon;
}
// * * * * * * * * * * * * * * * * * * * * * * * * * * * * * * * * * * * * * //

dimensions      [0 2 -3 0 0 0 0];

internalField   nonuniform List<scalar> 
27000
(
0.00152435
0.000224468
0.000110921
7.02415e-05
5.22e-05
4.1917e-05
3.52032e-05
3.0551e-05
2.72049e-05
2.47552e-05
2.29534e-05
2.16389e-05
2.07057e-05
2.01127e-05
1.98259e-05
1.98281e-05
2.01195e-05
2.07173e-05
2.16549e-05
2.29698e-05
2.47753e-05
2.72294e-05
3.05798e-05
3.52348e-05
4.19473e-05
5.22181e-05
7.02192e-05
0.000110784
0.000224
0.00152106
0.000150691
3.24776e-05
1.39144e-05
9.33264e-06
7.21581e-06
5.99012e-06
5.15634e-06
4.54687e-06
4.09027e-06
3.74868e-06
3.49515e-06
3.30957e-06
3.17782e-06
3.09343e-06
3.05235e-06
3.05244e-06
3.09364e-06
3.17798e-06
3.3093e-06
3.49381e-06
3.74622e-06
4.08639e-06
4.54117e-06
5.14845e-06
5.9798e-06
7.20143e-06
9.30986e-06
1.38688e-05
3.23749e-05
0.000150405
0.000100145
1.53165e-05
5.14046e-06
2.57458e-06
1.92391e-06
1.63508e-06
1.45405e-06
1.32403e-06
1.22595e-06
1.15143e-06
1.09525e-06
1.05378e-06
1.02425e-06
1.00518e-06
9.95753e-07
9.95566e-07
1.0046e-06
1.0232e-06
1.05214e-06
1.09291e-06
1.14822e-06
1.222e-06
1.31956e-06
1.4496e-06
1.63146e-06
1.92094e-06
2.56873e-06
5.11399e-06
1.52438e-05
0.000100005
6.67148e-05
1.02936e-05
2.84784e-06
1.39831e-06
1.00141e-06
8.58269e-07
7.84041e-07
7.34978e-07
6.99204e-07
6.72441e-07
6.52246e-07
6.37236e-07
6.26542e-07
6.19612e-07
6.1614e-07
6.15986e-07
6.19143e-07
6.25746e-07
6.36111e-07
6.50822e-07
6.7083e-07
6.97557e-07
7.33571e-07
7.83281e-07
8.58464e-07
1.00208e-06
1.39677e-06
2.83567e-06
1.02556e-05
6.66781e-05
4.93024e-05
7.27387e-06
2.05281e-06
1.04493e-06
7.5348e-07
6.44312e-07
5.94227e-07
5.65222e-07
5.46034e-07
5.3337e-07
5.24216e-07
5.17285e-07
5.12314e-07
5.09082e-07
5.07447e-07
5.07337e-07
5.08757e-07
5.11794e-07
5.16624e-07
5.23533e-07
5.32918e-07
5.45706e-07
5.65185e-07
5.94653e-07
6.45167e-07
7.54199e-07
1.0438e-06
2.04548e-06
7.25407e-06
4.93062e-05
3.87182e-05
5.62716e-06
1.63411e-06
8.79554e-07
6.52484e-07
5.632e-07
5.23834e-07
5.0319e-07
4.90852e-07
4.82989e-07
4.77694e-07
4.73957e-07
4.71349e-07
4.69671e-07
4.68819e-07
4.68751e-07
4.69476e-07
4.71058e-07
4.73628e-07
4.77419e-07
4.8287e-07
4.90931e-07
5.03532e-07
5.24408e-07
5.63746e-07
6.5266e-07
8.78188e-07
1.62877e-06
5.616e-06
3.87348e-05
3.17157e-05
4.60837e-06
1.39071e-06
7.82657e-07
5.98146e-07
5.2544e-07
4.92732e-07
4.76616e-07
4.6784e-07
4.62637e-07
4.59343e-07
4.57153e-07
4.55685e-07
4.54759e-07
4.54294e-07
4.54258e-07
4.54662e-07
4.55553e-07
4.57033e-07
4.59295e-07
4.62719e-07
4.68081e-07
4.77009e-07
4.93181e-07
5.25723e-07
5.97906e-07
7.81115e-07
1.38647e-06
4.60192e-06
3.17343e-05
2.68397e-05
3.92234e-06
1.23148e-06
7.19703e-07
5.63253e-07
5.03465e-07
4.76776e-07
4.64083e-07
4.57643e-07
4.54112e-07
4.52015e-07
4.50686e-07
4.49822e-07
4.49288e-07
4.49023e-07
4.49009e-07
4.49252e-07
4.49787e-07
4.50681e-07
4.52076e-07
4.54265e-07
4.57891e-07
4.64383e-07
4.77027e-07
5.03495e-07
5.6285e-07
7.18266e-07
1.22837e-06
3.91886e-06
2.68568e-05
2.32661e-05
3.42923e-06
1.11735e-06
6.75548e-07
5.39664e-07
4.89431e-07
4.67574e-07
4.57599e-07
4.52859e-07
4.50457e-07
4.49124e-07
4.48312e-07
4.47792e-07
4.47471e-07
4.47314e-07
4.47313e-07
4.47471e-07
4.47805e-07
4.48357e-07
4.49217e-07
4.50603e-07
4.53042e-07
4.5777e-07
4.67646e-07
4.89291e-07
5.39206e-07
6.74383e-07
1.11532e-06
3.42814e-06
2.32843e-05
2.06565e-05
3.0682e-06
1.03251e-06
6.43448e-07
5.25326e-07
4.80601e-07
4.6202e-07
4.54002e-07
4.50464e-07
4.48825e-07
4.47986e-07
4.47494e-07
4.47178e-07
4.46981e-07
4.46885e-07
4.46889e-07
4.46995e-07
4.4721e-07
4.47549e-07
4.48069e-07
4.4893e-07
4.50567e-07
4.54058e-07
4.61965e-07
4.80357e-07
5.24812e-07
6.42585e-07
1.03133e-06
3.06841e-06
2.06709e-05
1.87503e-05
2.80381e-06
9.69131e-07
6.19106e-07
5.1386e-07
4.74437e-07
4.58461e-07
4.51882e-07
4.49179e-07
4.48044e-07
4.47518e-07
4.47224e-07
4.47034e-07
4.46911e-07
4.46851e-07
4.46857e-07
4.46929e-07
4.47066e-07
4.47271e-07
4.47576e-07
4.48102e-07
4.49214e-07
4.5186e-07
4.5834e-07
4.74176e-07
5.13435e-07
6.18539e-07
9.68552e-07
2.80469e-06
1.87613e-05
1.73764e-05
2.61279e-06
9.22647e-07
6.01077e-07
5.05288e-07
4.70015e-07
4.56084e-07
4.50573e-07
4.48448e-07
4.47639e-07
4.47306e-07
4.47133e-07
4.4702e-07
4.46944e-07
4.46906e-07
4.46911e-07
4.46959e-07
4.47044e-07
4.47164e-07
4.47336e-07
4.47658e-07
4.48437e-07
4.50509e-07
4.55945e-07
4.69786e-07
5.0498e-07
6.00751e-07
9.22476e-07
2.61404e-06
1.73851e-05
1.64245e-05
2.48013e-06
8.89967e-07
5.88164e-07
4.99214e-07
4.66959e-07
4.54517e-07
4.49761e-07
4.48023e-07
4.47418e-07
4.47199e-07
4.47098e-07
4.47031e-07
4.46984e-07
4.4696e-07
4.46964e-07
4.46995e-07
4.47046e-07
4.47114e-07
4.47208e-07
4.47409e-07
4.47985e-07
4.4968e-07
4.54383e-07
4.66776e-07
4.99009e-07
5.8803e-07
8.90052e-07
2.48157e-06
1.64317e-05
1.58241e-05
2.39629e-06
8.69134e-07
5.79795e-07
4.95321e-07
4.65038e-07
4.53563e-07
4.49288e-07
4.47787e-07
4.473e-07
4.47146e-07
4.47084e-07
4.47043e-07
4.47013e-07
4.46997e-07
4.47e-07
4.4702e-07
4.47051e-07
4.47089e-07
4.47141e-07
4.47277e-07
4.47736e-07
4.49203e-07
4.53442e-07
4.64892e-07
4.95181e-07
5.79745e-07
8.69351e-07
2.39782e-06
1.58304e-05
1.55332e-05
2.3556e-06
8.5897e-07
5.75697e-07
4.93421e-07
4.64111e-07
4.53113e-07
4.49072e-07
4.47684e-07
4.47252e-07
4.47126e-07
4.47081e-07
4.47052e-07
4.47029e-07
4.47017e-07
4.47019e-07
4.47034e-07
4.47057e-07
4.47081e-07
4.47115e-07
4.47222e-07
4.4763e-07
4.48988e-07
4.53001e-07
4.63985e-07
4.93312e-07
5.75681e-07
8.59242e-07
2.35715e-06
1.55392e-05
1.55322e-05
2.35538e-06
8.58902e-07
5.75675e-07
4.93409e-07
4.64107e-07
4.53113e-07
4.49075e-07
4.4769e-07
4.47258e-07
4.47132e-07
4.47087e-07
4.47057e-07
4.47034e-07
4.47022e-07
4.47024e-07
4.47039e-07
4.47063e-07
4.47088e-07
4.47122e-07
4.4723e-07
4.47638e-07
4.48995e-07
4.53006e-07
4.63985e-07
4.93304e-07
5.7566e-07
8.5917e-07
2.35694e-06
1.55384e-05
1.58211e-05
2.39562e-06
8.68922e-07
5.79723e-07
4.95284e-07
4.65023e-07
4.53563e-07
4.49297e-07
4.47802e-07
4.47318e-07
4.47164e-07
4.471e-07
4.47058e-07
4.47027e-07
4.47011e-07
4.47014e-07
4.47035e-07
4.47069e-07
4.47108e-07
4.47163e-07
4.473e-07
4.4776e-07
4.49223e-07
4.53455e-07
4.64891e-07
4.95157e-07
5.7968e-07
8.69132e-07
2.39715e-06
1.58279e-05
1.64196e-05
2.47896e-06
8.89585e-07
5.88026e-07
4.9914e-07
4.66926e-07
4.54512e-07
4.49773e-07
4.48045e-07
4.47444e-07
4.47226e-07
4.47122e-07
4.47053e-07
4.47004e-07
4.46979e-07
4.46984e-07
4.47017e-07
4.47072e-07
4.47143e-07
4.47241e-07
4.47445e-07
4.48021e-07
4.49711e-07
4.54404e-07
4.66773e-07
4.98965e-07
5.87915e-07
8.89675e-07
2.48043e-06
1.64273e-05
1.73695e-05
2.61104e-06
9.22041e-07
6.00819e-07
5.05158e-07
4.69957e-07
4.5607e-07
4.50585e-07
4.48474e-07
4.4767e-07
4.47336e-07
4.47159e-07
4.47042e-07
4.46963e-07
4.46925e-07
4.46931e-07
4.46981e-07
4.47072e-07
4.47197e-07
4.47375e-07
4.47701e-07
4.48481e-07
4.50548e-07
4.55969e-07
4.69779e-07
5.0491e-07
6.00553e-07
9.21919e-07
2.61236e-06
1.73786e-05
1.87413e-05
2.80137e-06
9.68235e-07
6.18711e-07
5.13662e-07
4.74345e-07
4.58432e-07
4.51888e-07
4.49203e-07
4.48073e-07
4.47543e-07
4.47244e-07
4.47049e-07
4.46922e-07
4.46861e-07
4.46869e-07
4.46945e-07
4.47087e-07
4.473e-07
4.47611e-07
4.48143e-07
4.49257e-07
4.51898e-07
4.58361e-07
4.74158e-07
5.13336e-07
6.18264e-07
9.67788e-07
2.80237e-06
1.87522e-05
2.06455e-05
3.06489e-06
1.03123e-06
6.42877e-07
5.25049e-07
4.80471e-07
4.61971e-07
4.53996e-07
4.50476e-07
4.4884e-07
4.47995e-07
4.47495e-07
4.47173e-07
4.46971e-07
4.46875e-07
4.46882e-07
4.46993e-07
4.47215e-07
4.47562e-07
4.48089e-07
4.48956e-07
4.50594e-07
4.5408e-07
4.61968e-07
4.80317e-07
5.24674e-07
6.42218e-07
1.03032e-06
3.06532e-06
2.06587e-05
2.32527e-05
3.4248e-06
1.11556e-06
6.74761e-07
5.3933e-07
4.8926e-07
4.67496e-07
4.57567e-07
4.52843e-07
4.50441e-07
4.49099e-07
4.48277e-07
4.47749e-07
4.47425e-07
4.47269e-07
4.47271e-07
4.47436e-07
4.47778e-07
4.48338e-07
4.49204e-07
4.50594e-07
4.53031e-07
4.57751e-07
4.67605e-07
4.89201e-07
5.39016e-07
6.73888e-07
1.11401e-06
3.42421e-06
2.32683e-05
2.68237e-05
3.91645e-06
1.229e-06
7.18638e-07
5.62802e-07
5.03223e-07
4.76646e-07
4.64e-07
4.57573e-07
4.54037e-07
4.51927e-07
4.50586e-07
4.49716e-07
4.4918e-07
4.48919e-07
4.48912e-07
4.49163e-07
4.49705e-07
4.50607e-07
4.52006e-07
4.54195e-07
4.57812e-07
4.64286e-07
4.76897e-07
5.03301e-07
5.62533e-07
7.17557e-07
1.2266e-06
3.91401e-06
2.68399e-05
3.16989e-05
4.60054e-06
1.38734e-06
7.81243e-07
5.97482e-07
5.25085e-07
4.92509e-07
4.76438e-07
4.67671e-07
4.62463e-07
4.59152e-07
4.56949e-07
4.55476e-07
4.54555e-07
4.54099e-07
4.54074e-07
4.54487e-07
4.55386e-07
4.56873e-07
4.59139e-07
4.62555e-07
4.67892e-07
4.76782e-07
4.92899e-07
5.25346e-07
5.97326e-07
7.80043e-07
1.38393e-06
4.59521e-06
3.1712e-05
3.86957e-05
5.6161e-06
1.62961e-06
8.77688e-07
6.51571e-07
5.62688e-07
5.23434e-07
5.02837e-07
4.90516e-07
4.82663e-07
4.77335e-07
4.73582e-07
4.70979e-07
4.69317e-07
4.68484e-07
4.68431e-07
4.69167e-07
4.70755e-07
4.7333e-07
4.77127e-07
4.82577e-07
4.90582e-07
5.03104e-07
5.23876e-07
5.63098e-07
6.51676e-07
8.76533e-07
1.62515e-06
5.60655e-06
3.87045e-05
4.92689e-05
7.2579e-06
2.04628e-06
1.0422e-06
7.52074e-07
6.43388e-07
5.9345e-07
5.64564e-07
5.45434e-07
5.32851e-07
5.23562e-07
5.16624e-07
5.11685e-07
5.08493e-07
5.0689e-07
5.06801e-07
5.0823e-07
5.11265e-07
5.16087e-07
5.23e-07
5.3247e-07
5.45131e-07
5.64467e-07
5.93687e-07
6.4393e-07
7.52447e-07
1.041e-06
2.03987e-06
7.24079e-06
4.92644e-05
6.66591e-05
1.02691e-05
2.83714e-06
1.39373e-06
9.98921e-07
8.56353e-07
7.82249e-07
7.33288e-07
6.97647e-07
6.71026e-07
6.5095e-07
6.36061e-07
6.25466e-07
6.18613e-07
6.15192e-07
6.15062e-07
6.18218e-07
6.24798e-07
6.35112e-07
6.49739e-07
6.69651e-07
6.96197e-07
7.31963e-07
7.81364e-07
8.56141e-07
9.98937e-07
1.39169e-06
2.82601e-06
1.02359e-05
6.66177e-05
0.000100047
1.52801e-05
5.12095e-06
2.56587e-06
1.91811e-06
1.63015e-06
1.44944e-06
1.31992e-06
1.22238e-06
1.14836e-06
1.09266e-06
1.05147e-06
1.02213e-06
1.00318e-06
9.9382e-07
9.93646e-07
1.00264e-06
1.02117e-06
1.04999e-06
1.09051e-06
1.14551e-06
1.21886e-06
1.31584e-06
1.44518e-06
1.62636e-06
1.91453e-06
2.55947e-06
5.09675e-06
1.52192e-05
9.99215e-05
0.000150534
3.24312e-05
1.38868e-05
9.31308e-06
7.20082e-06
5.97784e-06
5.14598e-06
4.53818e-06
4.0829e-06
3.74233e-06
3.48956e-06
3.30433e-06
3.17278e-06
3.0885e-06
3.0474e-06
3.04737e-06
3.08837e-06
3.17243e-06
3.30344e-06
3.48764e-06
3.73932e-06
4.07851e-06
4.53199e-06
5.1375e-06
5.96688e-06
7.1861e-06
9.29095e-06
1.38441e-05
3.23428e-05
0.000150272
0.00152284
0.00022424
0.000110832
7.02012e-05
5.2178e-05
4.19028e-05
3.51927e-05
3.05422e-05
2.71967e-05
2.47471e-05
2.29451e-05
2.16288e-05
2.06949e-05
2.01014e-05
1.9814e-05
1.98156e-05
2.01061e-05
2.07029e-05
2.16397e-05
2.29561e-05
2.47604e-05
2.72125e-05
3.05601e-05
3.52112e-05
4.19184e-05
5.21818e-05
7.01701e-05
0.000110703
0.000223831
0.00152
0.00113224
0.000170139
8.91727e-05
5.8637e-05
4.52707e-05
3.74997e-05
3.2371e-05
2.87939e-05
2.61856e-05
2.42117e-05
2.27397e-05
2.16732e-05
2.09569e-05
2.05029e-05
2.02804e-05
2.02769e-05
2.04922e-05
2.09385e-05
2.16474e-05
2.27142e-05
2.41775e-05
2.61266e-05
2.87199e-05
3.22918e-05
3.74328e-05
4.52454e-05
5.87165e-05
8.95116e-05
0.000171264
0.00114019
0.000108108
3.13262e-05
2.05454e-05
1.44373e-05
1.15398e-05
9.65387e-06
8.26368e-06
7.24488e-06
6.46969e-06
5.87678e-06
5.43185e-06
5.10904e-06
4.88836e-06
4.75058e-06
4.68413e-06
4.68399e-06
4.75034e-06
4.88855e-06
5.11091e-06
5.4374e-06
5.88679e-06
6.48451e-06
7.26915e-06
8.30562e-06
9.71551e-06
1.16191e-05
1.45431e-05
2.06988e-05
3.17147e-05
0.000108947
8.44634e-05
2.25932e-05
1.14616e-05
5.83328e-06
3.7372e-06
2.88893e-06
2.41895e-06
2.09682e-06
1.85971e-06
1.68235e-06
1.55351e-06
1.46076e-06
1.39729e-06
1.35789e-06
1.33922e-06
1.33972e-06
1.35949e-06
1.40025e-06
1.46552e-06
1.56072e-06
1.69568e-06
1.87747e-06
2.11871e-06
2.44322e-06
2.90941e-06
3.75098e-06
5.85314e-06
1.15527e-05
2.28558e-05
8.4902e-05
5.76865e-05
1.64354e-05
6.59529e-06
2.81153e-06
1.55864e-06
1.14845e-06
9.7916e-07
8.8174e-07
8.12608e-07
7.60228e-07
7.20763e-07
6.91802e-07
6.71667e-07
6.59051e-07
6.53112e-07
6.53453e-07
6.60104e-07
6.73517e-07
6.94553e-07
7.24521e-07
7.65069e-07
8.18026e-07
8.86912e-07
9.82401e-07
1.14731e-06
1.55285e-06
2.8128e-06
6.65512e-06
1.66023e-05
5.78084e-05
4.44197e-05
1.16778e-05
4.15615e-06
1.69159e-06
9.49283e-07
6.98238e-07
6.01262e-07
5.54547e-07
5.25499e-07
5.0332e-07
4.86498e-07
4.7436e-07
4.66271e-07
4.61274e-07
4.58992e-07
4.5928e-07
4.62141e-07
4.67706e-07
4.76278e-07
4.88597e-07
5.05316e-07
5.27269e-07
5.55431e-07
6.00546e-07
6.95365e-07
9.45104e-07
1.69309e-06
4.19326e-06
1.17706e-05
4.44153e-05
3.62914e-05
8.81368e-06
2.87098e-06
1.2109e-06
7.20834e-07
5.44929e-07
4.69554e-07
4.3603e-07
4.1952e-07
4.09249e-07
4.01926e-07
3.96618e-07
3.92991e-07
3.90763e-07
3.89773e-07
3.89952e-07
3.91289e-07
3.93817e-07
3.97636e-07
4.02938e-07
4.10012e-07
4.19744e-07
4.35395e-07
4.68186e-07
5.43007e-07
7.19531e-07
1.21479e-06
2.89874e-06
8.86837e-06
3.62459e-05
3.07642e-05
7.01568e-06
2.16072e-06
9.61156e-07
6.09891e-07
4.73961e-07
4.15309e-07
3.88718e-07
3.7612e-07
3.69582e-07
3.65709e-07
3.63192e-07
3.61545e-07
3.6056e-07
3.60137e-07
3.60236e-07
3.60841e-07
3.6196e-07
3.63644e-07
3.66052e-07
3.69638e-07
3.75717e-07
3.87789e-07
4.1407e-07
4.73123e-07
6.10341e-07
9.65781e-07
2.18005e-06
7.03902e-06
3.07235e-05
2.684e-05
5.85886e-06
1.74829e-06
8.17203e-07
5.456e-07
4.37236e-07
3.89671e-07
3.67267e-07
3.56608e-07
3.51509e-07
3.48983e-07
3.47649e-07
3.4691e-07
3.46515e-07
3.46361e-07
3.46408e-07
3.46642e-07
3.47076e-07
3.47783e-07
3.48989e-07
3.51291e-07
3.56112e-07
3.66559e-07
3.8902e-07
4.37161e-07
5.46841e-07
8.21231e-07
1.76079e-06
5.86974e-06
2.68069e-05
2.41217e-05
5.08589e-06
1.49563e-06
7.28705e-07
5.04783e-07
4.15824e-07
3.75869e-07
3.56662e-07
3.47401e-07
3.43069e-07
3.41125e-07
3.40288e-07
3.39942e-07
3.3981e-07
3.39776e-07
3.39792e-07
3.39849e-07
3.39975e-07
3.4027e-07
3.41007e-07
3.42818e-07
3.47035e-07
3.56295e-07
3.75742e-07
4.16288e-07
5.0617e-07
7.31708e-07
1.5032e-06
5.08914e-06
2.40875e-05
2.21082e-05
4.55011e-06
1.33171e-06
6.70641e-07
4.76034e-07
4.01494e-07
3.67469e-07
3.50925e-07
3.42869e-07
3.39102e-07
3.37466e-07
3.36836e-07
3.3664e-07
3.36607e-07
3.36614e-07
3.36614e-07
3.36603e-07
3.36616e-07
3.36768e-07
3.37339e-07
3.3892e-07
3.42683e-07
3.50847e-07
3.67684e-07
4.02229e-07
4.77499e-07
6.72693e-07
1.33585e-06
4.5491e-06
2.20817e-05
2.06073e-05
4.17084e-06
1.22114e-06
6.31267e-07
4.57802e-07
3.91788e-07
3.61959e-07
3.47527e-07
3.40502e-07
3.37209e-07
3.35782e-07
3.35245e-07
3.35093e-07
3.3508e-07
3.35093e-07
3.35088e-07
3.35061e-07
3.35054e-07
3.35179e-07
3.35693e-07
3.37118e-07
3.40463e-07
3.4763e-07
3.62325e-07
3.92535e-07
4.5897e-07
6.32531e-07
1.22298e-06
4.16751e-06
2.05871e-05
1.9506e-05
3.9032e-06
1.14556e-06
6.03986e-07
4.45229e-07
3.85066e-07
3.58198e-07
3.45361e-07
3.39167e-07
3.36269e-07
3.35003e-07
3.34515e-07
3.34368e-07
3.34347e-07
3.34352e-07
3.34346e-07
3.34328e-07
3.34336e-07
3.34472e-07
3.34961e-07
3.36253e-07
3.39222e-07
3.45551e-07
3.58591e-07
3.85707e-07
4.46076e-07
6.047e-07
1.14593e-06
3.89858e-06
1.949e-05
1.87318e-05
3.7203e-06
1.09492e-06
5.8525e-07
4.36557e-07
3.80429e-07
3.55627e-07
3.43936e-07
3.38363e-07
3.3577e-07
3.3463e-07
3.34175e-07
3.34022e-07
3.33986e-07
3.33982e-07
3.33977e-07
3.33973e-07
3.34004e-07
3.34157e-07
3.34627e-07
3.35805e-07
3.3847e-07
3.44156e-07
3.55994e-07
3.80949e-07
4.37161e-07
5.85648e-07
1.09443e-06
3.71502e-06
1.87183e-05
1.82386e-05
3.60596e-06
1.06359e-06
5.73421e-07
4.31048e-07
3.77477e-07
3.53994e-07
3.43046e-07
3.37884e-07
3.35498e-07
3.34444e-07
3.34011e-07
3.33853e-07
3.33805e-07
3.33793e-07
3.33791e-07
3.33799e-07
3.33847e-07
3.34013e-07
3.34467e-07
3.35563e-07
3.38015e-07
3.43269e-07
3.54325e-07
3.77903e-07
4.3149e-07
5.7361e-07
1.06272e-06
3.60044e-06
1.82266e-05
1.79991e-05
3.55108e-06
1.04866e-06
5.67737e-07
4.28374e-07
3.76036e-07
3.53194e-07
3.4261e-07
3.37651e-07
3.35369e-07
3.34359e-07
3.33938e-07
3.33777e-07
3.33722e-07
3.33707e-07
3.33706e-07
3.33721e-07
3.33778e-07
3.3395e-07
3.34395e-07
3.35446e-07
3.37789e-07
3.42828e-07
3.53501e-07
3.76412e-07
4.28738e-07
5.67834e-07
1.04764e-06
3.54553e-06
1.79875e-05
1.80003e-05
3.5516e-06
1.04881e-06
5.67771e-07
4.28387e-07
3.76038e-07
3.5319e-07
3.42601e-07
3.3764e-07
3.35357e-07
3.34346e-07
3.33925e-07
3.33763e-07
3.33709e-07
3.33694e-07
3.33693e-07
3.33707e-07
3.33765e-07
3.33937e-07
3.34382e-07
3.35433e-07
3.37776e-07
3.42815e-07
3.5349e-07
3.76408e-07
4.2875e-07
5.67881e-07
1.04785e-06
3.54613e-06
1.79885e-05
1.82423e-05
3.60755e-06
1.06408e-06
5.73536e-07
4.31093e-07
3.77486e-07
3.53983e-07
3.43022e-07
3.37853e-07
3.35463e-07
3.34408e-07
3.33974e-07
3.33815e-07
3.33767e-07
3.33755e-07
3.33753e-07
3.33761e-07
3.33809e-07
3.33975e-07
3.34429e-07
3.35523e-07
3.37974e-07
3.43229e-07
3.54292e-07
3.7789e-07
4.31524e-07
5.73751e-07
1.06335e-06
3.60229e-06
1.82295e-05
1.87379e-05
3.72312e-06
1.09583e-06
5.85471e-07
4.36651e-07
3.80456e-07
3.55614e-07
3.439e-07
3.38314e-07
3.35715e-07
3.34573e-07
3.34117e-07
3.33964e-07
3.33928e-07
3.33923e-07
3.33918e-07
3.33914e-07
3.33944e-07
3.34097e-07
3.34565e-07
3.35741e-07
3.38404e-07
3.4409e-07
3.55938e-07
3.80923e-07
4.37212e-07
5.85887e-07
1.09556e-06
3.71824e-06
1.87236e-05
1.95145e-05
3.90751e-06
1.14714e-06
6.04334e-07
4.45396e-07
3.85125e-07
3.58191e-07
3.45315e-07
3.39102e-07
3.36198e-07
3.34932e-07
3.34445e-07
3.34299e-07
3.34278e-07
3.34283e-07
3.34276e-07
3.34257e-07
3.34263e-07
3.34397e-07
3.34882e-07
3.36169e-07
3.39134e-07
3.45461e-07
3.58512e-07
3.85666e-07
4.46137e-07
6.05007e-07
1.14761e-06
3.90335e-06
1.94979e-05
2.06184e-05
4.17698e-06
1.22362e-06
6.31849e-07
4.58089e-07
3.91896e-07
3.61962e-07
3.47474e-07
3.40427e-07
3.3713e-07
3.35708e-07
3.35176e-07
3.35028e-07
3.35017e-07
3.35029e-07
3.35021e-07
3.34991e-07
3.3498e-07
3.351e-07
3.35607e-07
3.37024e-07
3.40361e-07
3.47523e-07
3.62228e-07
3.92485e-07
4.59053e-07
6.32955e-07
1.22535e-06
4.17413e-06
2.05984e-05
2.21218e-05
4.55858e-06
1.33546e-06
6.7158e-07
4.76477e-07
4.01653e-07
3.67478e-07
3.50866e-07
3.42792e-07
3.39031e-07
3.3741e-07
3.36792e-07
3.36604e-07
3.36573e-07
3.36577e-07
3.36573e-07
3.36555e-07
3.3656e-07
3.36704e-07
3.37265e-07
3.38834e-07
3.42584e-07
3.50739e-07
3.67584e-07
4.02185e-07
4.77625e-07
6.73279e-07
1.33905e-06
4.55795e-06
2.20974e-05
2.41381e-05
5.09753e-06
1.50123e-06
7.30141e-07
5.0532e-07
4.16007e-07
3.75873e-07
3.56603e-07
3.47345e-07
3.43039e-07
3.41124e-07
3.40308e-07
3.39972e-07
3.39841e-07
3.39801e-07
3.39808e-07
3.39855e-07
3.39969e-07
3.40252e-07
3.40976e-07
3.42772e-07
3.46972e-07
3.56216e-07
3.75667e-07
4.16276e-07
5.06373e-07
7.32546e-07
1.50755e-06
5.10067e-06
2.41086e-05
2.68596e-05
5.87512e-06
1.75669e-06
8.19326e-07
5.46277e-07
4.37428e-07
3.89674e-07
3.67243e-07
3.56626e-07
3.51583e-07
3.49102e-07
3.47794e-07
3.47063e-07
3.46662e-07
3.46496e-07
3.46527e-07
3.46744e-07
3.47163e-07
3.47855e-07
3.49047e-07
3.51333e-07
3.56137e-07
3.66564e-07
3.89022e-07
4.37229e-07
5.47172e-07
8.22523e-07
1.76708e-06
5.88505e-06
2.68278e-05
3.07826e-05
7.04046e-06
2.17365e-06
9.64103e-07
6.10599e-07
4.74164e-07
4.15364e-07
3.88822e-07
3.76323e-07
3.69868e-07
3.66049e-07
3.63556e-07
3.61906e-07
3.609e-07
3.60451e-07
3.60524e-07
3.61106e-07
3.62206e-07
3.63873e-07
3.66266e-07
3.69842e-07
3.75915e-07
3.87973e-07
4.14249e-07
4.73371e-07
6.10864e-07
9.6787e-07
2.19026e-06
7.06313e-06
3.07535e-05
3.6338e-05
8.85997e-06
2.88992e-06
1.21481e-06
7.2168e-07
5.45206e-07
4.69848e-07
4.36479e-07
4.20112e-07
4.0991e-07
4.02638e-07
3.97346e-07
3.93688e-07
3.91408e-07
3.90365e-07
3.90504e-07
3.91813e-07
3.94325e-07
3.98127e-07
4.03407e-07
4.10473e-07
4.20241e-07
4.35909e-07
4.68687e-07
5.43594e-07
7.20616e-07
1.21825e-06
2.91473e-06
8.91253e-06
3.63147e-05
4.44984e-05
1.17368e-05
4.18165e-06
1.69755e-06
9.50795e-07
6.98971e-07
6.0216e-07
5.55736e-07
5.26757e-07
5.04495e-07
4.87792e-07
4.75676e-07
4.67483e-07
4.62367e-07
4.5999e-07
4.60219e-07
4.63053e-07
4.68618e-07
4.77201e-07
4.89478e-07
5.06099e-07
5.28215e-07
5.565e-07
6.01637e-07
6.96739e-07
9.47759e-07
1.69983e-06
4.21593e-06
1.18227e-05
4.45172e-05
5.78262e-05
1.65198e-05
6.63791e-06
2.82554e-06
1.56277e-06
1.15175e-06
9.8282e-07
8.85332e-07
8.15854e-07
7.63085e-07
7.23106e-07
6.9377e-07
6.73357e-07
6.60539e-07
6.54472e-07
6.54752e-07
6.61401e-07
6.74865e-07
6.96028e-07
7.26255e-07
7.67039e-07
8.20389e-07
8.89828e-07
9.85889e-07
1.15136e-06
1.55917e-06
2.82998e-06
6.69393e-06
1.66675e-05
5.79589e-05
8.472e-05
2.27003e-05
1.15145e-05
5.85705e-06
3.75489e-06
2.90635e-06
2.43589e-06
2.11094e-06
1.8712e-06
1.6915e-06
1.55904e-06
1.46531e-06
1.40124e-06
1.36147e-06
1.34259e-06
1.34305e-06
1.36289e-06
1.40383e-06
1.46947e-06
1.56666e-06
1.70293e-06
1.88639e-06
2.13034e-06
2.45822e-06
2.92526e-06
3.7691e-06
5.87736e-06
1.15949e-05
2.29189e-05
8.51019e-05
0.000108514
3.14603e-05
2.06159e-05
1.44937e-05
1.15903e-05
9.69844e-06
8.29755e-06
7.26904e-06
6.48896e-06
5.8927e-06
5.44484e-06
5.12061e-06
4.89928e-06
4.76127e-06
4.69488e-06
4.69502e-06
4.76183e-06
4.90071e-06
5.12396e-06
5.45181e-06
5.90366e-06
6.50503e-06
7.29474e-06
8.34304e-06
9.75825e-06
1.16647e-05
1.45889e-05
2.07507e-05
3.18043e-05
0.000109261
0.00113559
0.000170602
8.93578e-05
5.87239e-05
4.53177e-05
3.75254e-05
3.23849e-05
2.88037e-05
2.61937e-05
2.42175e-05
2.27462e-05
2.16834e-05
2.09684e-05
2.05154e-05
2.02938e-05
2.02913e-05
2.05079e-05
2.09556e-05
2.16658e-05
2.2729e-05
2.41952e-05
2.61583e-05
2.8759e-05
3.23435e-05
3.75006e-05
4.53318e-05
5.88278e-05
8.96815e-05
0.000171584
0.00114252
0.000932211
0.000138405
7.54102e-05
5.12007e-05
4.05379e-05
3.4162e-05
2.97859e-05
2.66173e-05
2.4281e-05
2.25772e-05
2.13136e-05
2.03831e-05
1.9715e-05
1.92897e-05
1.90842e-05
1.90872e-05
1.92986e-05
1.97301e-05
2.04043e-05
2.13365e-05
2.26057e-05
2.43273e-05
2.66703e-05
2.98311e-05
3.41766e-05
4.04888e-05
5.10241e-05
7.4952e-05
0.000137011
0.000921707
9.06139e-05
3.24995e-05
2.17741e-05
1.6444e-05
1.39378e-05
1.24626e-05
1.135e-05
1.0381e-05
9.52632e-06
8.80704e-06
8.23102e-06
7.79029e-06
7.47219e-06
7.26659e-06
7.1656e-06
7.16476e-06
7.26377e-06
7.46654e-06
7.78015e-06
8.21387e-06
8.78129e-06
9.49195e-06
1.03359e-05
1.12857e-05
1.23714e-05
1.38211e-05
1.62971e-05
2.15707e-05
3.17826e-05
8.94447e-05
7.18178e-05
2.17657e-05
1.32859e-05
8.4856e-06
6.05607e-06
4.76519e-06
3.9853e-06
3.44765e-06
3.04844e-06
2.74162e-06
2.50684e-06
2.33458e-06
2.21465e-06
2.139e-06
2.10216e-06
2.10137e-06
2.13648e-06
2.21012e-06
2.3275e-06
2.4964e-06
2.72444e-06
3.02605e-06
3.42013e-06
3.95203e-06
4.73827e-06
6.0368e-06
8.45493e-06
1.31565e-05
2.14407e-05
7.11799e-05
4.99451e-05
1.74719e-05
9.16331e-06
4.95309e-06
2.8836e-06
1.92005e-06
1.47357e-06
1.23774e-06
1.09315e-06
9.88997e-07
9.1202e-07
8.56402e-07
8.17948e-07
7.93865e-07
7.82204e-07
7.81983e-07
7.93183e-07
8.16762e-07
8.54688e-07
9.09863e-07
9.86496e-07
1.09081e-06
1.23601e-06
1.4737e-06
1.93119e-06
2.90487e-06
4.95111e-06
9.07435e-06
1.72442e-05
4.96971e-05
3.88576e-05
1.35488e-05
6.4777e-06
3.05404e-06
1.56002e-06
9.73154e-07
7.30409e-07
6.216e-07
5.61658e-07
5.2214e-07
4.93982e-07
4.73661e-07
4.58466e-07
4.4874e-07
4.43972e-07
4.4382e-07
4.48296e-07
4.5778e-07
4.72913e-07
4.93805e-07
5.22361e-07
5.62696e-07
6.24153e-07
7.36636e-07
9.8609e-07
1.57698e-06
3.05536e-06
6.41933e-06
1.34191e-05
3.87991e-05
3.20645e-05
1.11571e-05
4.62303e-06
1.96331e-06
9.92226e-07
6.36986e-07
4.94799e-07
4.29075e-07
3.92134e-07
3.69439e-07
3.54229e-07
3.4364e-07
3.36242e-07
3.31535e-07
3.29235e-07
3.29195e-07
3.31434e-07
3.36151e-07
3.43703e-07
3.54678e-07
3.70492e-07
3.94176e-07
4.32532e-07
4.99463e-07
6.45154e-07
1.00008e-06
1.95973e-06
4.58149e-06
1.10869e-05
3.20877e-05
2.74918e-05
9.41381e-06
3.42505e-06
1.37353e-06
7.23756e-07
4.94732e-07
3.97515e-07
3.51235e-07
3.26517e-07
3.11742e-07
3.02196e-07
2.95741e-07
2.91391e-07
2.88682e-07
2.87381e-07
2.87388e-07
2.88723e-07
2.9153e-07
2.96092e-07
3.02925e-07
3.13061e-07
3.28658e-07
3.54301e-07
4.01126e-07
4.98077e-07
7.26094e-07
1.37137e-06
3.40154e-06
9.37906e-06
2.75321e-05
2.42512e-05
8.06272e-06
2.6783e-06
1.06156e-06
5.87034e-07
4.20281e-07
3.48956e-07
3.15353e-07
2.97404e-07
2.86825e-07
2.80149e-07
2.75759e-07
2.72877e-07
2.71119e-07
2.70295e-07
2.70329e-07
2.71236e-07
2.73125e-07
2.76218e-07
2.80925e-07
2.88028e-07
2.99099e-07
3.17465e-07
3.51179e-07
4.22039e-07
5.87623e-07
1.05949e-06
2.66331e-06
8.04286e-06
2.42932e-05
2.18092e-05
7.0097e-06
2.19865e-06
8.78758e-07
5.09671e-07
3.76188e-07
3.21826e-07
2.96165e-07
2.82549e-07
2.74677e-07
2.69826e-07
2.66718e-07
2.64723e-07
2.63529e-07
2.62983e-07
2.63025e-07
2.63666e-07
2.64985e-07
2.6715e-07
2.70477e-07
2.75578e-07
2.83673e-07
2.97379e-07
3.22852e-07
3.76687e-07
5.09384e-07
8.76937e-07
2.18925e-06
7.00219e-06
2.18534e-05
2.00042e-05
6.21001e-06
1.88136e-06
7.65494e-07
4.59434e-07
3.49509e-07
3.05659e-07
2.85057e-07
2.74324e-07
2.68292e-07
2.64695e-07
2.62461e-07
2.61063e-07
2.60243e-07
2.59876e-07
2.59915e-07
2.60366e-07
2.61284e-07
2.62797e-07
2.65156e-07
2.68864e-07
2.74941e-07
2.85579e-07
3.05856e-07
3.4911e-07
4.58412e-07
7.64045e-07
1.87612e-06
6.21111e-06
2.00442e-05
1.86722e-05
5.61713e-06
1.66731e-06
6.93117e-07
4.27244e-07
3.33474e-07
2.95909e-07
2.78469e-07
2.69605e-07
2.64802e-07
2.62059e-07
2.60424e-07
2.59435e-07
2.58868e-07
2.58619e-07
2.5865e-07
2.58961e-07
2.59593e-07
2.60647e-07
2.62335e-07
2.65098e-07
2.69849e-07
2.78544e-07
2.9566e-07
3.32764e-07
4.26217e-07
6.92121e-07
1.66516e-06
5.62373e-06
1.8708e-05
1.77038e-05
5.18981e-06
1.52262e-06
6.45853e-07
4.06592e-07
3.23525e-07
2.90005e-07
2.7456e-07
2.66883e-07
2.62872e-07
2.60686e-07
2.59447e-07
2.58728e-07
2.58329e-07
2.58156e-07
2.58177e-07
2.5839e-07
2.58826e-07
2.59571e-07
2.60815e-07
2.62969e-07
2.66887e-07
2.74387e-07
2.89564e-07
3.22772e-07
4.05721e-07
6.45225e-07
1.52267e-06
5.19988e-06
1.77367e-05
1.70275e-05
4.89553e-06
1.42725e-06
6.15628e-07
3.93476e-07
3.17356e-07
2.8646e-07
2.7228e-07
2.65341e-07
2.61819e-07
2.59978e-07
2.58984e-07
2.58435e-07
2.58139e-07
2.58013e-07
2.58026e-07
2.58174e-07
2.58484e-07
2.59034e-07
2.60005e-07
2.61789e-07
2.65207e-07
2.71987e-07
2.85959e-07
3.1665e-07
3.92759e-07
6.15197e-07
1.42859e-06
4.90774e-06
1.70585e-05
1.65975e-05
4.71145e-06
1.36968e-06
5.97647e-07
3.85679e-07
3.13746e-07
2.84449e-07
2.71029e-07
2.64522e-07
2.6128e-07
2.59634e-07
2.58778e-07
2.58323e-07
2.58086e-07
2.57986e-07
2.57992e-07
2.58103e-07
2.58342e-07
2.58782e-07
2.59601e-07
2.6118e-07
2.6432e-07
2.70687e-07
2.83943e-07
3.131e-07
3.85078e-07
5.97359e-07
1.37104e-06
4.7245e-06
1.66275e-05
1.63875e-05
4.62253e-06
1.34238e-06
5.89173e-07
3.82027e-07
3.12079e-07
2.83548e-07
2.70489e-07
2.64183e-07
2.61067e-07
2.59506e-07
2.58711e-07
2.58296e-07
2.58083e-07
2.57994e-07
2.57998e-07
2.58092e-07
2.583e-07
2.58694e-07
2.59448e-07
2.6094e-07
2.63958e-07
2.70138e-07
2.83055e-07
3.11477e-07
3.81491e-07
5.88954e-07
1.34385e-06
4.63582e-06
1.64171e-05
1.63849e-05
4.62124e-06
1.34218e-06
5.89153e-07
3.82033e-07
3.12102e-07
2.8358e-07
2.70525e-07
2.64219e-07
2.61101e-07
2.59536e-07
2.58736e-07
2.58317e-07
2.58102e-07
2.5801e-07
2.58015e-07
2.58111e-07
2.58323e-07
2.58723e-07
2.59484e-07
2.60982e-07
2.64006e-07
2.70189e-07
2.83106e-07
3.11519e-07
3.81511e-07
5.88935e-07
1.34361e-06
4.63434e-06
1.64147e-05
1.65897e-05
4.70751e-06
1.36907e-06
5.97584e-07
3.85697e-07
3.13816e-07
2.84546e-07
2.71139e-07
2.64632e-07
2.61382e-07
2.59724e-07
2.58854e-07
2.58387e-07
2.5814e-07
2.58036e-07
2.58044e-07
2.58161e-07
2.58411e-07
2.58868e-07
2.59706e-07
2.61306e-07
2.64465e-07
2.70845e-07
2.841e-07
3.13234e-07
3.85145e-07
5.97307e-07
1.3703e-06
4.71996e-06
1.66202e-05
1.70141e-05
4.88861e-06
1.42609e-06
6.15508e-07
3.93506e-07
3.17473e-07
2.86626e-07
2.72467e-07
2.65528e-07
2.61992e-07
2.60128e-07
2.5911e-07
2.58539e-07
2.58228e-07
2.58095e-07
2.58109e-07
2.58268e-07
2.58598e-07
2.59175e-07
2.60178e-07
2.61997e-07
2.65449e-07
2.72253e-07
2.86231e-07
3.16891e-07
3.92893e-07
6.15113e-07
1.42695e-06
4.89991e-06
1.70456e-05
1.76847e-05
5.1792e-06
1.51995e-06
6.45683e-07
4.06636e-07
3.23694e-07
2.90245e-07
2.7483e-07
2.67151e-07
2.63116e-07
2.60896e-07
2.59621e-07
2.58872e-07
2.5845e-07
2.58268e-07
2.58291e-07
2.58518e-07
2.5898e-07
2.59761e-07
2.6105e-07
2.63253e-07
2.67221e-07
2.74763e-07
2.8996e-07
3.23141e-07
4.05961e-07
6.45197e-07
1.52015e-06
5.18846e-06
1.77174e-05
1.86469e-05
5.60241e-06
1.66317e-06
6.92861e-07
4.27294e-07
3.33699e-07
2.96232e-07
2.78829e-07
2.69957e-07
2.65117e-07
2.62324e-07
2.6064e-07
2.59611e-07
2.59016e-07
2.58756e-07
2.58789e-07
2.59119e-07
2.59782e-07
2.6088e-07
2.62622e-07
2.65446e-07
2.70262e-07
2.79018e-07
2.96174e-07
3.33271e-07
4.26586e-07
6.92145e-07
1.66142e-06
5.6082e-06
1.86813e-05
1.99723e-05
6.19058e-06
1.87556e-06
7.65102e-07
4.59485e-07
3.498e-07
3.06076e-07
2.85517e-07
2.7476e-07
2.6867e-07
2.65005e-07
2.62708e-07
2.61261e-07
2.60409e-07
2.6003e-07
2.60074e-07
2.60545e-07
2.61499e-07
2.6306e-07
2.65479e-07
2.69255e-07
2.75408e-07
2.8612e-07
3.06451e-07
3.49724e-07
4.5891e-07
7.64175e-07
1.87145e-06
6.19114e-06
2.00084e-05
2.17699e-05
6.98464e-06
2.19079e-06
8.78161e-07
5.09817e-07
3.76574e-07
3.22369e-07
2.96732e-07
2.8306e-07
2.75097e-07
2.70155e-07
2.66971e-07
2.64922e-07
2.63697e-07
2.63141e-07
2.63191e-07
2.63856e-07