/*--------------------------------*- C++ -*----------------------------------*\
| =========                 |                                                 |
| \\      /  F ield         | OpenFOAM: The Open Source CFD Toolbox           |
|  \\    /   O peration     | Version:  2312                                  |
|   \\  /    A nd           | Website:  www.openfoam.com                      |
|    \\/     M anipulation  |                                                 |
\*---------------------------------------------------------------------------*/
FoamFile
{
    version     2.0;
    format      ascii;
    arch        "LSB;label=32;scalar=64";
    class       volScalarField;
    location    "900";
    object      k;
}
// * * * * * * * * * * * * * * * * * * * * * * * * * * * * * * * * * * * * * //

dimensions      [0 2 -2 0 0 0 0];

internalField   nonuniform List<scalar> 
27000
(
0.000258571
0.000129277
0.000107424
9.57614e-05
9.03363e-05
8.6957e-05
8.43744e-05
8.21067e-05
8.02152e-05
7.86796e-05
7.74486e-05
7.64771e-05
7.57209e-05
7.52186e-05
7.49717e-05
7.49775e-05
7.5236e-05
7.57495e-05
7.65142e-05
7.74859e-05
7.87228e-05
8.0264e-05
8.21588e-05
8.44253e-05
8.69993e-05
9.03571e-05
9.57404e-05
0.000107333
0.000129094
0.000258195
9.80816e-05
2.14708e-05
2.8257e-05
3.06914e-05
3.24826e-05
3.3666e-05
3.44198e-05
3.48695e-05
3.51156e-05
3.52618e-05
3.53602e-05
3.54298e-05
3.5475e-05
3.55017e-05
3.55137e-05
3.55126e-05
3.54981e-05
3.54685e-05
3.54196e-05
3.53457e-05
3.52434e-05
3.50927e-05
3.48425e-05
3.43901e-05
3.36351e-05
3.24479e-05
3.06507e-05
2.82027e-05
2.14171e-05
9.79572e-05
0.000101296
3.48234e-05
2.88807e-05
2.73899e-05
2.80788e-05
2.89718e-05
2.97326e-05
3.03607e-05
3.08478e-05
3.12228e-05
3.15143e-05
3.17367e-05
3.18973e-05
3.20004e-05
3.20489e-05
3.20444e-05
3.1987e-05
3.18753e-05
3.17071e-05
3.14792e-05
3.11861e-05
3.08122e-05
3.03299e-05
2.9712e-05
2.89691e-05
2.80864e-05
2.73967e-05
2.88451e-05
3.47114e-05
0.0001012
9.49294e-05
3.52291e-05
2.88168e-05
2.86537e-05
2.9514e-05
3.0309e-05
3.093e-05
3.14129e-05
3.17871e-05
3.20734e-05
3.22934e-05
3.24604e-05
3.2581e-05
3.26583e-05
3.26943e-05
3.26899e-05
3.26453e-05
3.25604e-05
3.24345e-05
3.22655e-05
3.20481e-05
3.17693e-05
3.14075e-05
3.09409e-05
3.03369e-05
2.95524e-05
2.86872e-05
2.88138e-05
3.51584e-05
9.48939e-05
9.04354e-05
3.4225e-05
2.9086e-05
2.98057e-05
3.08208e-05
3.15723e-05
3.21008e-05
3.24772e-05
3.27497e-05
3.29477e-05
3.30929e-05
3.31994e-05
3.32747e-05
3.33224e-05
3.33441e-05
3.33407e-05
3.33128e-05
3.32604e-05
3.31829e-05
3.30777e-05
3.29381e-05
3.27503e-05
3.24914e-05
3.21295e-05
3.16122e-05
3.08629e-05
2.98354e-05
2.90846e-05
3.41795e-05
9.044e-05
8.67607e-05
3.39461e-05
2.94964e-05
3.0573e-05
3.16537e-05
3.23887e-05
3.28705e-05
3.31857e-05
3.33922e-05
3.35279e-05
3.36176e-05
3.36773e-05
3.37163e-05
3.37397e-05
3.37498e-05
3.37477e-05
3.3734e-05
3.37085e-05
3.36697e-05
3.36135e-05
3.35308e-05
3.34048e-05
3.32092e-05
3.29034e-05
3.24258e-05
3.1686e-05
3.05891e-05
2.94887e-05
3.39146e-05
8.67859e-05
8.36055e-05
3.39884e-05
3.01262e-05
3.11919e-05
3.22169e-05
3.2908e-05
3.33492e-05
3.36208e-05
3.37819e-05
3.38735e-05
3.39232e-05
3.39488e-05
3.39614e-05
3.39669e-05
3.39684e-05
3.39675e-05
3.39645e-05
3.39588e-05
3.39481e-05
3.39265e-05
3.38832e-05
3.3799e-05
3.36448e-05
3.3377e-05
3.29341e-05
3.22335e-05
3.11911e-05
3.01033e-05
3.39614e-05
8.36389e-05
8.08666e-05
3.41364e-05
3.07698e-05
3.17257e-05
3.26391e-05
3.32552e-05
3.3644e-05
3.38736e-05
3.39981e-05
3.40573e-05
3.4079e-05
3.40817e-05
3.40767e-05
3.40704e-05
3.40665e-05
3.40663e-05
3.40704e-05
3.40776e-05
3.40849e-05
3.4086e-05
3.40689e-05
3.40143e-05
3.38928e-05
3.36627e-05
3.32685e-05
3.26411e-05
3.17126e-05
3.07433e-05
3.41162e-05
8.09016e-05
7.83436e-05
3.4283e-05
3.13089e-05
3.2161e-05
3.2963e-05
3.34971e-05
3.38269e-05
3.40133e-05
3.41054e-05
3.41398e-05
3.41425e-05
3.4131e-05
3.41159e-05
3.41032e-05
3.40964e-05
3.40967e-05
3.41045e-05
3.41185e-05
3.41359e-05
3.41502e-05
3.41502e-05
3.41178e-05
3.40257e-05
3.38361e-05
3.34995e-05
3.29553e-05
3.21423e-05
3.12841e-05
3.42697e-05
7.83858e-05
7.61952e-05
3.44068e-05
3.17406e-05
3.25049e-05
3.32093e-05
3.36686e-05
3.39415e-05
3.40868e-05
3.41502e-05
3.41654e-05
3.41559e-05
3.41366e-05
3.41169e-05
3.41018e-05
3.4094e-05
3.40945e-05
3.41036e-05
3.41201e-05
3.41414e-05
3.41624e-05
3.41731e-05
3.41579e-05
3.40926e-05
3.39431e-05
3.36637e-05
3.31965e-05
3.24854e-05
3.17196e-05
3.43987e-05
7.62321e-05
7.44267e-05
3.45061e-05
3.20784e-05
3.27744e-05
3.33986e-05
3.37924e-05
3.40148e-05
3.41237e-05
3.41631e-05
3.41639e-05
3.41468e-05
3.41242e-05
3.41035e-05
3.40884e-05
3.40808e-05
3.40814e-05
3.40901e-05
3.41063e-05
3.4128e-05
3.41513e-05
3.41683e-05
3.41664e-05
3.41243e-05
3.40111e-05
3.37833e-05
3.33841e-05
3.27561e-05
3.20614e-05
3.45016e-05
7.44574e-05
7.30273e-05
3.45817e-05
3.23334e-05
3.29786e-05
3.3541e-05
3.38818e-05
3.40627e-05
3.41419e-05
3.41622e-05
3.41527e-05
3.4131e-05
3.41077e-05
3.40879e-05
3.40741e-05
3.40673e-05
3.40678e-05
3.40754e-05
3.40899e-05
3.41101e-05
3.41334e-05
3.41542e-05
3.4162e-05
3.41388e-05
3.40558e-05
3.38708e-05
3.35265e-05
3.29625e-05
3.23199e-05
3.45794e-05
7.3053e-05
7.1987e-05
3.46353e-05
3.25156e-05
3.31251e-05
3.36425e-05
3.39441e-05
3.40938e-05
3.41508e-05
3.41572e-05
3.41406e-05
3.41166e-05
3.40936e-05
3.40755e-05
3.40633e-05
3.40574e-05
3.40577e-05
3.40641e-05
3.40766e-05
3.40948e-05
3.41172e-05
3.41399e-05
3.41545e-05
3.41454e-05
3.40853e-05
3.39325e-05
3.36289e-05
3.31111e-05
3.25047e-05
3.46345e-05
7.20092e-05
7.12975e-05
3.46692e-05
3.26324e-05
3.32194e-05
3.37077e-05
3.39835e-05
3.41127e-05
3.41551e-05
3.41526e-05
3.41317e-05
3.41065e-05
3.40843e-05
3.40676e-05
3.40567e-05
3.40515e-05
3.40517e-05
3.40572e-05
3.40681e-05
3.40845e-05
3.41059e-05
3.41295e-05
3.41484e-05
3.41485e-05
3.41035e-05
3.3972e-05
3.36949e-05
3.32071e-05
3.26233e-05
3.46693e-05
7.13178e-05
7.09528e-05
3.4685e-05
3.26891e-05
3.32652e-05
3.37393e-05
3.40025e-05
3.41217e-05
3.4157e-05
3.41502e-05
3.41272e-05
3.41017e-05
3.40799e-05
3.4064e-05
3.40539e-05
3.40491e-05
3.40492e-05
3.40542e-05
3.40642e-05
3.40797e-05
3.41004e-05
3.41244e-05
3.41454e-05
3.41499e-05
3.41123e-05
3.39913e-05
3.37272e-05
3.32538e-05
3.26809e-05
3.46856e-05
7.09724e-05
7.09497e-05
3.46837e-05
3.26884e-05
3.32646e-05
3.37388e-05
3.40023e-05
3.41217e-05
3.41571e-05
3.41504e-05
3.41275e-05
3.4102e-05
3.40803e-05
3.40643e-05
3.40542e-05
3.40494e-05
3.40495e-05
3.40545e-05
3.40645e-05
3.408e-05
3.41008e-05
3.41248e-05
3.41457e-05
3.41502e-05
3.41125e-05
3.39913e-05
3.3727e-05
3.32534e-05
3.26802e-05
3.46842e-05
7.09698e-05
7.12884e-05
3.46653e-05
3.26301e-05
3.32176e-05
3.37064e-05
3.39828e-05
3.41126e-05
3.41554e-05
3.41533e-05
3.41325e-05
3.41074e-05
3.40852e-05
3.40684e-05
3.40575e-05
3.40523e-05
3.40525e-05
3.4058e-05
3.4069e-05
3.40855e-05
3.41069e-05
3.41306e-05
3.41494e-05
3.41493e-05
3.41041e-05
3.39721e-05
3.36944e-05
3.32058e-05
3.26211e-05
3.46654e-05
7.131e-05
7.19721e-05
3.46287e-05
3.25115e-05
3.3122e-05
3.36404e-05
3.39428e-05
3.40935e-05
3.41512e-05
3.41582e-05
3.41418e-05
3.41178e-05
3.40949e-05
3.40765e-05
3.40643e-05
3.40583e-05
3.40586e-05
3.40652e-05
3.40778e-05
3.40962e-05
3.41187e-05
3.41414e-05
3.4156e-05
3.41466e-05
3.40861e-05
3.39326e-05
3.3628e-05
3.3109e-05
3.2501e-05
3.46279e-05
7.1996e-05
7.30072e-05
3.45723e-05
3.23273e-05
3.2974e-05
3.35377e-05
3.38799e-05
3.40621e-05
3.41423e-05
3.41632e-05
3.41539e-05
3.41323e-05
3.41088e-05
3.40888e-05
3.40748e-05
3.40679e-05
3.40684e-05
3.40762e-05
3.40909e-05
3.41114e-05
3.41349e-05
3.41558e-05
3.41636e-05
3.41401e-05
3.40567e-05
3.38708e-05
3.35252e-05
3.29596e-05
3.23147e-05
3.457e-05
7.3034e-05
7.44022e-05
3.44936e-05
3.20698e-05
3.27678e-05
3.33941e-05
3.37898e-05
3.40138e-05
3.41239e-05
3.41639e-05
3.41648e-05
3.41475e-05
3.41246e-05
3.41036e-05
3.40882e-05
3.40805e-05
3.40811e-05
3.40901e-05
3.41066e-05
3.41286e-05
3.41522e-05
3.41695e-05
3.41676e-05
3.41253e-05
3.40116e-05
3.37829e-05
3.33823e-05
3.27522e-05
3.20545e-05
3.44892e-05
7.44324e-05
7.61671e-05
3.43907e-05
3.17289e-05
3.24961e-05
3.32033e-05
3.36652e-05
3.394e-05
3.40865e-05
3.41504e-05
3.41655e-05
3.41555e-05
3.41356e-05
3.41154e-05
3.41e-05
3.4092e-05
3.40927e-05
3.4102e-05
3.41189e-05
3.41408e-05
3.41621e-05
3.41731e-05
3.41581e-05
3.40927e-05
3.39427e-05
3.36624e-05
3.31937e-05
3.24801e-05
3.17107e-05
3.43831e-05
7.62009e-05
7.83124e-05
3.42627e-05
3.12935e-05
3.21499e-05
3.29559e-05
3.34932e-05
3.38249e-05
3.40123e-05
3.41044e-05
3.41382e-05
3.41401e-05
3.41278e-05
3.41119e-05
3.40989e-05
3.4092e-05
3.40925e-05
3.41007e-05
3.41153e-05
3.41332e-05
3.4148e-05
3.41485e-05
3.41163e-05
3.40242e-05
3.38342e-05
3.34967e-05
3.29509e-05
3.21353e-05
3.12727e-05
3.42508e-05
7.83486e-05
8.08332e-05
3.41117e-05
3.07508e-05
3.1713e-05
3.26314e-05
3.32509e-05
3.36414e-05
3.38714e-05
3.39952e-05
3.40532e-05
3.40737e-05
3.40752e-05
3.40694e-05
3.40629e-05
3.4059e-05
3.40591e-05
3.40637e-05
3.40715e-05
3.40795e-05
3.40812e-05
3.40647e-05
3.40104e-05
3.38889e-05
3.36585e-05
3.32635e-05
3.26347e-05
3.17033e-05
3.07288e-05
3.40938e-05
8.08663e-05
8.3575e-05
3.39595e-05
3.01053e-05
3.11797e-05
3.22096e-05
3.29034e-05
3.33454e-05
3.36164e-05
3.3776e-05
3.38657e-05
3.39137e-05
3.39381e-05
3.39499e-05
3.39552e-05
3.3957e-05
3.39566e-05
3.39542e-05
3.39493e-05
3.39393e-05
3.39184e-05
3.38756e-05
3.37919e-05
3.36377e-05
3.33697e-05
3.29261e-05
3.22244e-05
3.11797e-05
3.00863e-05
3.39352e-05
8.35983e-05
8.67259e-05
3.39152e-05
2.94801e-05
3.05621e-05
3.16464e-05
3.2383e-05
3.28643e-05
3.31776e-05
3.33817e-05
3.35149e-05
3.36026e-05
3.36611e-05
3.36997e-05
3.37232e-05
3.37338e-05
3.37325e-05
3.37196e-05
3.36949e-05
3.36569e-05
3.36014e-05
3.35193e-05
3.33938e-05
3.31983e-05
3.28924e-05
3.24141e-05
3.16731e-05
3.0575e-05
2.94731e-05
3.38871e-05
8.67391e-05
9.03931e-05
3.41868e-05
2.9067e-05
2.97933e-05
3.08119e-05
3.15638e-05
3.20902e-05
3.24633e-05
3.27325e-05
3.29277e-05
3.30712e-05
3.31769e-05
3.32523e-05
3.33005e-05
3.33231e-05
3.33207e-05
3.32937e-05
3.32422e-05
3.31655e-05
3.3061e-05
3.2922e-05
3.27347e-05
3.24762e-05
3.21145e-05
3.15965e-05
3.08455e-05
2.98158e-05
2.90636e-05
3.41462e-05
9.03872e-05
9.48749e-05
3.51807e-05
2.87912e-05
2.86377e-05
2.95014e-05
3.02956e-05
3.09125e-05
3.13912e-05
3.1762e-05
3.20458e-05
3.22644e-05
3.24312e-05
3.25525e-05
3.2631e-05
3.26682e-05
3.26648e-05
3.26212e-05
3.25371e-05
3.24121e-05
3.22441e-05
3.20273e-05
3.17489e-05
3.13877e-05
3.09219e-05
3.03182e-05
2.95314e-05
2.86623e-05
2.8785e-05
3.51183e-05
9.48346e-05
0.000101228
3.47683e-05
2.88406e-05
2.7367e-05
2.80598e-05
2.89512e-05
2.97034e-05
3.03285e-05
3.08144e-05
3.11887e-05
3.14796e-05
3.17028e-05
3.18648e-05
3.19694e-05
3.20192e-05
3.20156e-05
3.19587e-05
3.18475e-05
3.16798e-05
3.1453e-05
3.11605e-05
3.07864e-05
3.03037e-05
2.96864e-05
2.89486e-05
2.80645e-05
2.73696e-05
2.88063e-05
3.46754e-05
0.000101142
9.80133e-05
2.14463e-05
2.82195e-05
3.06548e-05
3.24474e-05
3.36315e-05
3.43845e-05
3.4835e-05
3.50826e-05
3.52303e-05
3.533e-05
3.54004e-05
3.54464e-05
3.54736e-05
3.54859e-05
3.54847e-05
3.54699e-05
3.54398e-05
3.53905e-05
3.53163e-05
3.5213e-05
3.50612e-05
3.481e-05
3.43575e-05
3.36026e-05
3.24144e-05
3.06162e-05
2.81678e-05
2.13995e-05
9.78937e-05
0.000258396
0.000129187
0.000107365
9.57235e-05
9.03099e-05
8.69366e-05
8.43568e-05
8.20902e-05
8.01984e-05
7.86618e-05
7.7429e-05
7.64521e-05
7.56935e-05
7.51893e-05
7.49406e-05
7.49446e-05
7.52013e-05
7.57132e-05
7.64781e-05
7.74541e-05
7.86902e-05
8.02298e-05
8.21224e-05
8.43864e-05
8.6958e-05
9.03138e-05
9.56945e-05
0.000107279
0.000129028
0.000258072
0.000212093
0.000107477
9.28799e-05
8.48972e-05
8.21459e-05
8.07241e-05
7.97723e-05
7.89123e-05
7.81832e-05
7.75092e-05
7.69513e-05
7.65357e-05
7.63087e-05
7.61647e-05
7.60891e-05
7.60804e-05
7.61381e-05
7.62641e-05
7.64769e-05
7.68943e-05
7.74368e-05
7.80661e-05
7.87781e-05
7.96442e-05
8.06312e-05
8.2119e-05
8.49781e-05
9.31197e-05
0.000107957
0.000213095
7.86169e-05
2.39185e-05
4.14235e-05
4.22476e-05
4.34377e-05
4.35944e-05
4.31572e-05
4.27564e-05
4.22413e-05
4.17095e-05
4.12362e-05
4.08588e-05
4.05869e-05
4.04129e-05
4.03282e-05
4.03288e-05
4.0415e-05
4.05921e-05
4.087e-05
4.12572e-05
4.17401e-05
4.22843e-05
4.28267e-05
4.33066e-05
4.38113e-05
4.3677e-05
4.24918e-05
4.1651e-05
2.41953e-05
7.90289e-05
9.04412e-05
5.10497e-05
4.10381e-05
3.28257e-05
3.00667e-05
2.95572e-05
2.94408e-05
2.92508e-05
2.90464e-05
2.88424e-05
2.86442e-05
2.84843e-05
2.83728e-05
2.83071e-05
2.82822e-05
2.8295e-05
2.83461e-05
2.84395e-05
2.85794e-05
2.87621e-05
2.89646e-05
2.91758e-05
2.93826e-05
2.95581e-05
2.9616e-05
3.00798e-05
3.28401e-05
4.12166e-05
5.15796e-05
9.07586e-05
8.61681e-05
4.97878e-05
3.61354e-05
2.8144e-05
2.47185e-05
2.41947e-05
2.45662e-05
2.50346e-05
2.54153e-05
2.57383e-05
2.5976e-05
2.61414e-05
2.62544e-05
2.63289e-05
2.63723e-05
2.63878e-05
2.63755e-05
2.63316e-05
2.62461e-05
2.60988e-05
2.58631e-05
2.55245e-05
2.51074e-05
2.45836e-05
2.4142e-05
2.46149e-05
2.80919e-05
3.62962e-05
5.01946e-05
8.62922e-05
8.4366e-05
4.56152e-05
3.22984e-05
2.57552e-05
2.371e-05
2.36644e-05
2.43058e-05
2.50157e-05
2.5605e-05
2.60691e-05
2.64191e-05
2.6671e-05
2.68436e-05
2.69538e-05
2.70122e-05
2.70237e-05
2.69878e-05
2.68982e-05
2.67415e-05
2.64963e-05
2.61387e-05
2.56488e-05
2.50149e-05
2.4248e-05
2.35604e-05
2.35985e-05
2.57075e-05
3.23759e-05
4.59e-05
8.43618e-05
8.30979e-05
4.22448e-05
3.00739e-05
2.498e-05
2.39958e-05
2.4381e-05
2.50801e-05
2.57754e-05
2.63671e-05
2.68366e-05
2.71927e-05
2.74518e-05
2.7631e-05
2.77447e-05
2.78028e-05
2.78102e-05
2.7766e-05
2.76638e-05
2.74908e-05
2.72293e-05
2.68591e-05
2.63631e-05
2.57357e-05
2.50039e-05
2.42845e-05
2.39175e-05
2.49768e-05
3.01567e-05
4.24467e-05
8.30288e-05
8.19243e-05
4.00332e-05
2.84703e-05
2.48402e-05
2.4649e-05
2.52341e-05
2.59266e-05
2.65606e-05
2.70938e-05
2.75183e-05
2.78418e-05
2.80782e-05
2.8242e-05
2.83453e-05
2.8397e-05
2.8401e-05
2.83567e-05
2.82582e-05
2.80946e-05
2.78518e-05
2.75143e-05
2.70696e-05
2.65146e-05
2.58658e-05
2.51776e-05
2.46283e-05
2.48875e-05
2.85748e-05
4.00996e-05
8.18517e-05
8.08652e-05
3.87382e-05
2.75012e-05
2.49642e-05
2.52622e-05
2.59691e-05
2.66421e-05
2.72147e-05
2.76802e-05
2.80453e-05
2.83213e-05
2.8522e-05
2.86602e-05
2.87468e-05
2.87892e-05
2.87909e-05
2.87513e-05
2.86654e-05
2.85246e-05
2.83171e-05
2.80305e-05
2.76535e-05
2.71793e-05
2.66083e-05
2.59541e-05
2.52891e-05
2.50442e-05
2.7592e-05
3.87692e-05
8.07985e-05
8.02507e-05
3.78725e-05
2.70103e-05
2.52594e-05
2.57969e-05
2.65554e-05
2.72048e-05
2.77223e-05
2.8124e-05
2.84288e-05
2.8654e-05
2.88148e-05
2.89241e-05
2.89916e-05
2.90239e-05
2.90242e-05
2.89919e-05
2.89231e-05
2.88106e-05
2.86445e-05
2.84132e-05
2.81039e-05
2.7703e-05
2.7196e-05
2.65701e-05
2.58477e-05
2.53445e-05
2.70817e-05
3.78849e-05
8.01733e-05
7.97226e-05
3.72723e-05
2.67621e-05
2.55509e-05
2.6227e-05
2.70045e-05
2.76286e-05
2.80988e-05
2.8445e-05
2.86954e-05
2.88731e-05
2.89959e-05
2.90772e-05
2.91263e-05
2.91493e-05
2.91488e-05
2.91247e-05
2.90737e-05
2.89897e-05
2.88639e-05
2.8684e-05
2.84342e-05
2.8094e-05
2.76372e-05
2.70345e-05
2.62829e-05
2.56256e-05
2.68142e-05
3.72736e-05
7.96572e-05
7.92617e-05
3.68529e-05
2.66428e-05
2.57904e-05
2.65491e-05
2.73349e-05
2.79358e-05
2.83671e-05
2.86677e-05
2.88729e-05
2.90104e-05
2.91006e-05
2.91576e-05
2.91908e-05
2.92058e-05
2.92052e-05
2.91887e-05
2.91539e-05
2.90953e-05
2.90041e-05
2.88672e-05
2.86656e-05
2.83729e-05
2.79543e-05
2.737e-05
2.66012e-05
2.58507e-05
2.66789e-05
3.68478e-05
7.92079e-05
7.88772e-05
3.65638e-05
2.65945e-05
2.59787e-05
2.67841e-05
2.75698e-05
2.81505e-05
2.85509e-05
2.8816e-05
2.8986e-05
2.9092e-05
2.91564e-05
2.91943e-05
2.92151e-05
2.9224e-05
2.92234e-05
2.92134e-05
2.91917e-05
2.91533e-05
2.90894e-05
2.89856e-05
2.88205e-05
2.85632e-05
2.81735e-05
2.76049e-05
2.68293e-05
2.60254e-05
2.66185e-05
3.6555e-05
7.8832e-05
7.85795e-05
3.63715e-05
2.6583e-05
2.61203e-05
2.69497e-05
2.77301e-05
2.82937e-05
2.86706e-05
2.89097e-05
2.90542e-05
2.91376e-05
2.91835e-05
2.92077e-05
2.92196e-05
2.92242e-05
2.92239e-05
2.92186e-05
2.92065e-05
2.91827e-05
2.91383e-05
2.9058e-05
2.89186e-05
2.86866e-05
2.83182e-05
2.7763e-05
2.6988e-05
2.61563e-05
2.65987e-05
3.63608e-05
7.85399e-05
7.83773e-05
3.62542e-05
2.65865e-05
2.62161e-05
2.70562e-05
2.78303e-05
2.8381e-05
2.8742e-05
2.8964e-05
2.9092e-05
2.91609e-05
2.9195e-05
2.92105e-05
2.92168e-05
2.92187e-05
2.92186e-05
2.92165e-05
2.92105e-05
2.9196e-05
2.91639e-05
2.90985e-05
2.89755e-05
2.87597e-05
2.84056e-05
2.78608e-05
2.70894e-05
2.62448e-05
2.65969e-05
3.62427e-05
7.83407e-05
7.82765e-05
3.61991e-05
2.65918e-05
2.62649e-05
2.71088e-05
2.78787e-05
2.84224e-05
2.87751e-05
2.89885e-05
2.91084e-05
2.91701e-05
2.91986e-05
2.92099e-05
2.92134e-05
2.92141e-05
2.92141e-05
2.92136e-05
2.92106e-05
2.92006e-05
2.91744e-05
2.91162e-05
2.90011e-05
2.87934e-05
2.84466e-05
2.79076e-05
2.71392e-05
2.629e-05
2.66001e-05
3.61874e-05
7.82409e-05
7.828e-05
3.62004e-05
2.65933e-05
2.62662e-05
2.71098e-05
2.78791e-05
2.84225e-05
2.87748e-05
2.8988e-05
2.91077e-05
2.91693e-05
2.91977e-05
2.9209e-05
2.92125e-05
2.92132e-05
2.92132e-05
2.92126e-05
2.92097e-05
2.91997e-05
2.91736e-05
2.91155e-05
2.90004e-05
2.87928e-05
2.84462e-05
2.79076e-05
2.71397e-05
2.62912e-05
2.66018e-05
3.6189e-05
7.82438e-05
7.8388e-05
3.6258e-05
2.6591e-05
2.62204e-05
2.70592e-05
2.78319e-05
2.83814e-05
2.87414e-05
2.89626e-05
2.90901e-05
2.91586e-05
2.91926e-05
2.9208e-05
2.92141e-05
2.92161e-05
2.9216e-05
2.92139e-05
2.9208e-05
2.91936e-05
2.91616e-05
2.90964e-05
2.89736e-05
2.87582e-05
2.84047e-05
2.78608e-05
2.7091e-05
2.62484e-05
2.66021e-05
3.62473e-05
7.83495e-05
7.85971e-05
3.63782e-05
2.65911e-05
2.61282e-05
2.69552e-05
2.77332e-05
2.82945e-05
2.86698e-05
2.89077e-05
2.90514e-05
2.91342e-05
2.91799e-05
2.9204e-05
2.92158e-05
2.92204e-05
2.92201e-05
2.92149e-05
2.92028e-05
2.91792e-05
2.91349e-05
2.90549e-05
2.89158e-05
2.86843e-05
2.83168e-05
2.77631e-05
2.69906e-05
2.61621e-05
2.66073e-05
3.63689e-05
7.85551e-05
7.89011e-05
3.6574e-05
2.66071e-05
2.59912e-05
2.6793e-05
2.75748e-05
2.81521e-05
2.85501e-05
2.88135e-05
2.89826e-05
2.90881e-05
2.91524e-05
2.91903e-05
2.92111e-05
2.922e-05
2.92195e-05
2.92094e-05
2.91877e-05
2.91493e-05
2.90855e-05
2.8982e-05
2.88172e-05
2.85605e-05
2.81719e-05
2.76052e-05
2.68329e-05
2.60335e-05
2.6631e-05
3.65671e-05
7.88544e-05
7.9291e-05
3.68676e-05
2.66619e-05
2.58092e-05
2.65622e-05
2.73421e-05
2.79384e-05
2.83665e-05
2.86653e-05
2.88697e-05
2.9007e-05
2.90973e-05
2.91545e-05
2.91879e-05
2.9203e-05
2.92022e-05
2.91856e-05
2.91506e-05
2.90919e-05
2.90007e-05
2.88639e-05
2.86625e-05
2.83703e-05
2.79529e-05
2.73708e-05
2.66059e-05
2.58611e-05
2.66956e-05
3.68645e-05
7.92381e-05
7.97566e-05
3.72927e-05
2.67902e-05
2.5578e-05
2.62452e-05
2.70141e-05
2.7632e-05
2.80986e-05
2.84432e-05
2.86935e-05
2.88716e-05
2.89951e-05
2.90768e-05
2.91262e-05
2.91492e-05
2.91485e-05
2.91241e-05
2.90727e-05
2.89884e-05
2.88622e-05
2.86821e-05
2.84323e-05
2.80925e-05
2.76368e-05
2.70364e-05
2.62893e-05
2.56391e-05
2.68364e-05
3.7296e-05
7.96964e-05
8.02886e-05
3.79008e-05
2.70502e-05
2.52958e-05
2.58196e-05
2.65662e-05
2.72085e-05
2.77229e-05
2.81241e-05
2.84299e-05
2.86565e-05
2.88186e-05
2.89287e-05
2.89965e-05
2.90287e-05
2.90286e-05
2.89957e-05
2.89261e-05
2.88129e-05
2.86462e-05
2.84143e-05
2.81047e-05
2.77039e-05
2.71977e-05
2.65742e-05
2.58569e-05
2.53622e-05
2.71109e-05
3.79143e-05
8.02218e-05
8.09063e-05
3.87783e-05
2.75555e-05
2.50079e-05
2.52862e-05
2.59792e-05
2.6646e-05
2.72173e-05
2.76845e-05
2.80522e-05
2.83309e-05
2.85334e-05
2.86726e-05
2.87593e-05
2.88012e-05
2.88021e-05
2.87616e-05
2.86747e-05
2.85328e-05
2.83244e-05
2.80368e-05
2.76591e-05
2.71845e-05
2.66139e-05
2.59617e-05
2.53023e-05
2.50682e-05
2.76312e-05
3.88095e-05
8.08418e-05
8.19585e-05
4.00974e-05
2.85389e-05
2.4881e-05
2.46695e-05
2.52429e-05
2.59323e-05
2.65685e-05
2.71063e-05
2.75356e-05
2.78628e-05
2.81012e-05
2.82655e-05
2.83683e-05
2.84189e-05
2.84217e-05
2.8376e-05
2.82762e-05
2.81114e-05
2.78674e-05
2.75287e-05
2.70828e-05
2.65269e-05
2.5878e-05
2.51916e-05
2.46469e-05
2.49159e-05
2.86275e-05
4.01637e-05
8.19066e-05
8.31717e-05
4.24038e-05
3.01339e-05
2.5018e-05
2.40149e-05
2.4392e-05
2.50929e-05
2.57948e-05
2.63943e-05
2.68704e-05
2.72307e-05
2.74913e-05
2.76698e-05
2.77817e-05
2.78377e-05
2.78432e-05
2.77974e-05
2.76937e-05
2.75194e-05
2.72567e-05
2.68851e-05
2.63876e-05
2.57589e-05
2.50268e-05
2.43089e-05
2.39465e-05
2.50143e-05
3.02072e-05
4.2598e-05
8.31367e-05
8.44688e-05
4.57864e-05
3.23637e-05
2.58011e-05
2.37327e-05
2.36856e-05
2.43357e-05
2.50565e-05
2.5656e-05
2.61277e-05
2.64812e-05
2.67326e-05
2.69024e-05
2.70089e-05
2.70639e-05
2.70727e-05
2.70349e-05
2.69439e-05
2.67858e-05
2.65394e-05
2.6181e-05
2.56897e-05
2.50538e-05
2.42869e-05
2.35983e-05
2.36436e-05
2.57686e-05
3.24368e-05
4.60502e-05
8.44941e-05
8.63111e-05
4.99886e-05
3.6272e-05
2.82038e-05
2.47542e-05
2.42347e-05
2.46205e-05
2.51005e-05
2.54929e-05
2.58241e-05
2.60654e-05
2.62286e-05
2.63359e-05
2.64045e-05
2.64432e-05
2.64555e-05
2.64413e-05
2.63962e-05
2.63091e-05
2.61591e-05
2.59224e-05
2.55836e-05
2.51622e-05
2.46383e-05
2.41956e-05
2.46779e-05
2.81751e-05
3.64278e-05
5.03537e-05
8.64458e-05
9.06285e-05
5.12547e-05
4.1153e-05
3.28705e-05
3.01094e-05
2.96132e-05
2.95254e-05
2.93354e-05
2.91283e-05
2.89247e-05
2.87337e-05
2.85704e-05
2.84523e-05
2.8381e-05
2.83523e-05
2.83629e-05
2.84134e-05
2.85069e-05
2.86455e-05
2.88212e-05
2.9021e-05
2.92355e-05
2.94507e-05
2.96334e-05
2.96668e-05
3.01265e-05
3.28896e-05
4.13099e-05
5.169e-05
9.09045e-05
7.88186e-05
2.40061e-05
4.15322e-05
4.23721e-05
4.35805e-05
4.37375e-05
4.32612e-05
4.28145e-05
4.22869e-05
4.17489e-05
4.12702e-05
4.08882e-05
4.0614e-05
4.04389e-05
4.03541e-05
4.03551e-05
4.04423e-05
4.0621e-05
4.09013e-05
4.12914e-05
4.17787e-05
4.233e-05
4.28879e-05
4.34357e-05
4.39486e-05
4.38027e-05
4.25905e-05
4.1735e-05
2.42556e-05
7.91851e-05
0.000212522
0.000107678
9.30124e-05
8.49847e-05
8.22063e-05
8.07643e-05
7.9798e-05
7.89326e-05
7.82024e-05
7.75233e-05
7.69675e-05
7.65618e-05
7.63386e-05
7.61975e-05
7.61247e-05
7.61186e-05
7.61791e-05
7.63079e-05
7.65206e-05
7.69294e-05
7.74763e-05
7.81317e-05
7.88523e-05
7.97322e-05
8.07319e-05
8.2227e-05
8.50892e-05
9.32418e-05
0.000108096
0.000213397
0.000186327
9.36675e-05
8.30634e-05
7.75623e-05
7.63211e-05
7.5867e-05
7.54752e-05
7.48931e-05
7.43536e-05
7.39861e-05
7.37058e-05
7.34802e-05
7.32769e-05
7.31431e-05
7.30805e-05
7.30877e-05
7.31646e-05
7.33125e-05
7.35279e-05
7.37554e-05
7.40444e-05
7.44438e-05
7.49873e-05
7.55455e-05
7.5882e-05
7.6253e-05
7.73781e-05
8.27227e-05
9.30365e-05
0.000184927
6.98864e-05
2.97182e-05
5.07223e-05
5.37925e-05
5.68673e-05
5.93131e-05
6.07823e-05
6.10487e-05
6.0542e-05
5.96562e-05
5.86977e-05
5.7835e-05
5.71524e-05
5.66865e-05
5.64504e-05
5.64466e-05
5.66744e-05
5.71294e-05
5.77971e-05
5.86366e-05
5.95684e-05
6.043e-05
6.09086e-05
6.05543e-05
5.89901e-05
5.64999e-05
5.34244e-05
5.03908e-05
2.90491e-05
6.92823e-05
8.11637e-05
5.57799e-05
5.0517e-05
4.46153e-05
4.02459e-05
3.78846e-05
3.65318e-05
3.55981e-05
3.48486e-05
3.41275e-05
3.34923e-05
3.2974e-05
3.25885e-05
3.23363e-05
3.22123e-05
3.22124e-05
3.23363e-05
3.2588e-05
3.2972e-05
3.34879e-05
3.41274e-05
3.48444e-05
3.55752e-05
3.6416e-05
3.77947e-05
4.02024e-05
4.45629e-05
5.02288e-05
5.50231e-05
8.06807e-05
7.82674e-05
5.91223e-05
4.86455e-05
3.70807e-05
3.04091e-05
2.7235e-05
2.60866e-05
2.56599e-05
2.54343e-05
2.51486e-05
2.48956e-05
2.47021e-05
2.4567e-05
2.44812e-05
2.44365e-05
2.4428e-05
2.44557e-05
2.45249e-05
2.46455e-05
2.48316e-05
2.50919e-05
2.5405e-05
2.56661e-05
2.61156e-05
2.73055e-05
3.05578e-05
3.71055e-05
4.83395e-05
5.85082e-05
7.8006e-05
7.71607e-05
5.75075e-05
4.35582e-05
3.17203e-05
2.57737e-05
2.35191e-05
2.26408e-05
2.23937e-05
2.23726e-05
2.23897e-05
2.24055e-05
2.24208e-05
2.24388e-05
2.24532e-05
2.24591e-05
2.24542e-05
2.24392e-05
2.24176e-05
2.23967e-05
2.23869e-05
2.23923e-05
2.2412e-05
2.248e-05
2.2772e-05
2.36617e-05
2.58761e-05
3.17451e-05
4.33456e-05
5.70794e-05
7.7081e-05
7.65091e-05
5.61824e-05
3.83385e-05
2.8045e-05
2.38274e-05
2.22795e-05
2.20148e-05
2.21007e-05
2.22676e-05
2.24207e-05
2.25373e-05
2.26228e-05
2.26848e-05
2.27258e-05
2.27456e-05
2.2744e-05
2.2722e-05
2.26821e-05
2.2627e-05
2.25579e-05
2.24703e-05
2.23589e-05
2.22404e-05
2.21953e-05
2.24579e-05
2.39504e-05
2.80603e-05
3.81837e-05
5.59152e-05
7.65439e-05
7.6005e-05
5.43233e-05
3.44291e-05
2.58581e-05
2.27125e-05
2.20449e-05
2.2205e-05
2.25163e-05
2.27978e-05
2.30169e-05
2.31757e-05
2.32863e-05
2.3361e-05
2.34077e-05
2.34306e-05
2.3432e-05
2.34128e-05
2.33732e-05
2.33109e-05
2.32198e-05
2.30881e-05
2.29009e-05
2.26499e-05
2.23568e-05
2.21834e-05
2.27909e-05
2.58579e-05
3.44042e-05
5.42155e-05
7.60777e-05
7.55785e-05
5.21258e-05
3.19953e-05
2.45418e-05
2.21721e-05
2.20913e-05
2.25292e-05
2.29861e-05
2.33501e-05
2.36152e-05
2.37986e-05
2.39208e-05
2.39993e-05
2.40462e-05
2.40693e-05
2.40722e-05
2.4056e-05
2.40183e-05
2.39527e-05
2.38473e-05
2.36836e-05
2.3438e-05
2.30871e-05
2.26282e-05
2.2163e-05
2.21886e-05
2.45003e-05
3.19886e-05
5.20591e-05
7.56644e-05
7.50378e-05
4.99347e-05
3.03583e-05
2.36492e-05
2.1965e-05
2.22425e-05
2.28406e-05
2.33818e-05
2.37966e-05
2.40913e-05
2.42901e-05
2.44184e-05
2.44975e-05
2.45431e-05
2.45651e-05
2.45686e-05
2.4554e-05
2.45171e-05
2.44485e-05
2.43321e-05
2.4145e-05
2.38586e-05
2.3444e-05
2.28888e-05
2.22565e-05
2.19287e-05
2.35894e-05
3.0354e-05
4.99072e-05
7.5139e-05
7.45839e-05
4.80013e-05
2.92627e-05
2.31849e-05
2.2018e-05
2.24599e-05
2.31236e-05
2.36998e-05
2.41358e-05
2.44427e-05
2.46469e-05
2.47758e-05
2.48531e-05
2.4896e-05
2.49162e-05
2.49194e-05
2.49056e-05
2.48695e-05
2.47995e-05
2.46774e-05
2.44781e-05
2.41717e-05
2.37284e-05
2.3134e-05
2.24396e-05
2.19624e-05
2.31246e-05
2.92592e-05
4.80065e-05
7.46832e-05
7.42224e-05
4.6419e-05
2.8521e-05
2.29667e-05
2.21665e-05
2.26906e-05
2.33725e-05
2.39518e-05
2.43874e-05
2.46921e-05
2.48929e-05
2.50177e-05
2.50906e-05
2.51299e-05
2.51478e-05
2.51502e-05
2.51371e-05
2.51023e-05
2.50335e-05
2.49113e-05
2.47107e-05
2.44017e-05
2.39558e-05
2.33587e-05
2.26527e-05
2.21065e-05
2.29135e-05
2.85188e-05
4.64485e-05
7.43179e-05
7.39453e-05
4.52044e-05
2.80258e-05
2.28765e-05
2.23316e-05
2.28999e-05
2.35795e-05
2.41466e-05
2.45698e-05
2.48638e-05
2.50557e-05
2.51731e-05
2.52403e-05
2.52754e-05
2.52908e-05
2.52924e-05
2.528e-05
2.52473e-05
2.51816e-05
2.50638e-05
2.48691e-05
2.45686e-05
2.41344e-05
2.35519e-05
2.28547e-05
2.2274e-05
2.28322e-05
2.80252e-05
4.5252e-05
7.40376e-05
7.37425e-05
4.43339e-05
2.77071e-05
2.28455e-05
2.24734e-05
2.30676e-05
2.37385e-05
2.42895e-05
2.46968e-05
2.49774e-05
2.51585e-05
2.52679e-05
2.53291e-05
2.53602e-05
2.53733e-05
2.53742e-05
2.53626e-05
2.53322e-05
2.52706e-05
2.5159e-05
2.49733e-05
2.46854e-05
2.42678e-05
2.37041e-05
2.30207e-05
2.24206e-05
2.28098e-05
2.7709e-05
4.4395e-05
7.38331e-05
7.36071e-05
4.37751e-05
2.75159e-05
2.28379e-05
2.25733e-05
2.31832e-05
2.38462e-05
2.43837e-05
2.47776e-05
2.50466e-05
2.52187e-05
2.53213e-05
2.53777e-05
2.54057e-05
2.5417e-05
2.54174e-05
2.54065e-05
2.53782e-05
2.53202e-05
2.52144e-05
2.5037e-05
2.47605e-05
2.43571e-05
2.38092e-05
2.31371e-05
2.25256e-05
2.28097e-05
2.7524e-05
4.38438e-05
7.36969e-05
7.35362e-05
4.35007e-05
2.74264e-05
2.28374e-05
2.26245e-05
2.32421e-05
2.39011e-05
2.44313e-05
2.48177e-05
2.50804e-05
2.52473e-05
2.53459e-05
2.53995e-05
2.54258e-05
2.54361e-05
2.54363e-05
2.54259e-05
2.53988e-05
2.53431e-05
2.52408e-05
2.50684e-05
2.47984e-05
2.44032e-05
2.38637e-05
2.31975e-05
2.258e-05
2.2813e-05
2.74368e-05
4.3572e-05
7.36261e-05
7.35285e-05
4.34932e-05
2.74245e-05
2.28365e-05
2.26247e-05
2.32432e-05
2.39029e-05
2.44335e-05
2.48201e-05
2.50827e-05
2.52494e-05
2.53478e-05
2.54012e-05
2.54273e-05
2.54376e-05
2.54377e-05
2.54274e-05
2.54006e-05
2.53452e-05
2.52433e-05
2.50712e-05
2.48015e-05
2.44063e-05
2.38667e-05
2.31999e-05
2.25813e-05
2.28125e-05
2.74347e-05
4.35634e-05
7.3619e-05
7.35839e-05
4.37526e-05
2.75105e-05
2.28352e-05
2.2574e-05
2.31865e-05
2.38516e-05
2.43903e-05
2.47846e-05
2.50536e-05
2.52251e-05
2.53269e-05
2.53826e-05
2.54101e-05
2.54212e-05
2.54216e-05
2.54111e-05
2.53835e-05
2.53265e-05
2.52217e-05
2.50454e-05
2.47696e-05
2.43665e-05
2.38181e-05
2.31444e-05
2.25299e-05
2.28087e-05
2.75185e-05
4.38183e-05
7.36751e-05
7.37039e-05
4.42954e-05
2.76993e-05
2.28416e-05
2.24747e-05
2.30734e-05
2.37477e-05
2.43006e-05
2.47086e-05
2.49888e-05
2.5169e-05
2.5277e-05
2.5337e-05
2.53673e-05
2.53799e-05
2.53808e-05
2.53699e-05
2.53407e-05
2.52806e-05
2.51708e-05
2.49868e-05
2.47003e-05
2.42833e-05
2.37192e-05
2.30334e-05
2.24288e-05
2.28102e-05
2.77033e-05
4.43525e-05
7.37957e-05
7.38918e-05
4.51495e-05
2.80209e-05
2.28726e-05
2.2334e-05
2.29084e-05
2.35927e-05
2.41625e-05
2.45864e-05
2.48796e-05
2.50698e-05
2.51854e-05
2.52507e-05
2.52845e-05
2.52992e-05
2.53009e-05
2.52894e-05
2.52583e-05
2.51947e-05
2.50793e-05
2.4887e-05
2.45887e-05
2.41558e-05
2.3573e-05
2.28733e-05
2.2287e-05
2.2835e-05
2.802e-05
4.51928e-05
7.39838e-05
7.41553e-05
4.63488e-05
2.85182e-05
2.2962e-05
2.21694e-05
2.27018e-05
2.33899e-05
2.39724e-05
2.44085e-05
2.47118e-05
2.49102e-05
2.50323e-05
2.51028e-05
2.51404e-05
2.51574e-05
2.51599e-05
2.51479e-05
2.5115e-05
2.50487e-05
2.49296e-05
2.4732e-05
2.44259e-05
2.39818e-05
2.3385e-05
2.26767e-05
2.21249e-05
2.29201e-05
2.85168e-05
4.63732e-05
7.4247e-05
7.45044e-05
4.79164e-05
2.92606e-05
2.31768e-05
2.20201e-05
2.24737e-05
2.31455e-05
2.37251e-05
2.4161e-05
2.44655e-05
2.46662e-05
2.47917e-05
2.48659e-05
2.49069e-05
2.49261e-05
2.49294e-05
2.49169e-05
2.4883e-05
2.48158e-05
2.4697e-05
2.45012e-05
2.41981e-05
2.37572e-05
2.31636e-05
2.24672e-05
2.19842e-05
2.31341e-05
2.92598e-05
4.79171e-05
7.45942e-05
7.49474e-05
4.98357e-05
3.03563e-05
2.36363e-05
2.19661e-05
2.22598e-05
2.28675e-05
2.34114e-05
2.38247e-05
2.41155e-05
2.43097e-05
2.44338e-05
2.45096e-05
2.4553e-05
2.45741e-05
2.45779e-05
2.45647e-05
2.45302e-05