/*--------------------------------*- C++ -*----------------------------------*\
| =========                 |                                                 |
| \\      /  F ield         | OpenFOAM: The Open Source CFD Toolbox           |
|  \\    /   O peration     | Version:  2312                                  |
|   \\  /    A nd           | Website:  www.openfoam.com                      |
|    \\/     M anipulation  |                                                 |
\*---------------------------------------------------------------------------*/
FoamFile
{
    version     2.0;
    format      ascii;
    arch        "LSB;label=32;scalar=64";
    class       volScalarField;
    location    "900";
    object      nut;
}
// * * * * * * * * * * * * * * * * * * * * * * * * * * * * * * * * * * * * * //

dimensions      [0 2 -1 0 0 0 0];

internalField   nonuniform List<scalar> 
27000
(
3.94746e-06
6.70084e-06
9.36328e-06
1.17498e-05
1.40701e-05
1.62354e-05
1.82004e-05
1.98598e-05
2.12868e-05
2.25061e-05
2.35192e-05
2.43259e-05
2.49221e-05
2.53177e-05
2.55156e-05
2.55166e-05
2.53207e-05
2.4927e-05
2.43316e-05
2.35251e-05
2.25126e-05
2.12935e-05
1.98663e-05
1.82061e-05
1.62394e-05
1.40717e-05
1.17484e-05
9.3591e-06
6.69591e-06
3.94451e-06
5.74552e-06
1.27749e-06
5.1645e-06
9.08387e-06
1.31601e-05
1.7029e-05
2.06785e-05
2.4067e-05
2.71325e-05
2.9852e-05
3.21964e-05
3.41356e-05
3.56417e-05
3.66691e-05
3.71878e-05
3.71844e-05
3.66592e-05
3.56268e-05
3.41187e-05
3.21823e-05
2.98404e-05
2.71229e-05
2.40599e-05
2.06744e-05
1.70272e-05
1.31582e-05
9.08195e-06
5.16159e-06
1.27513e-06
5.74186e-06
9.22144e-06
7.12566e-06
1.46035e-05
2.62251e-05
3.68821e-05
4.62014e-05
5.47179e-05
6.26568e-05
6.9858e-05
7.61989e-05
8.16098e-05
8.60237e-05
8.94011e-05
9.1687e-05
9.28361e-05
9.28276e-05
9.16636e-05
8.93697e-05
8.59964e-05
8.1603e-05
7.62325e-05
6.99223e-05
6.27414e-05
5.48097e-05
4.62952e-05
3.69592e-05
2.62979e-05
1.46429e-05
7.11368e-06
9.21684e-06
1.21569e-05
1.08512e-05
2.62433e-05
5.28448e-05
7.82861e-05
9.63302e-05
0.000109816
0.000120833
0.000130059
0.000137682
0.000143899
0.000148816
0.000152483
0.000154921
0.000156138
0.000156135
0.000154915
0.000152484
0.000148841
0.000143965
0.000137796
0.00013022
0.000121022
0.000109999
9.64854e-05
7.84378e-05
5.30268e-05
2.63505e-05
1.08478e-05
1.21545e-05
1.49297e-05
1.44932e-05
3.70905e-05
7.65162e-05
0.000113464
0.000139239
0.000156071
0.00016795
0.000176782
0.000183174
0.000188019
0.000191767
0.000194507
0.000196302
0.000197192
0.000197195
0.000196316
0.000194537
0.000191821
0.000188092
0.000183223
0.000176895
0.000168108
0.000156238
0.000139405
0.000113666
7.67514e-05
3.72197e-05
1.44941e-05
1.49301e-05
1.74974e-05
1.84303e-05
4.79179e-05
9.56437e-05
0.000138205
0.000167636
0.000185636
0.000196975
0.000204448
0.000209468
0.000212925
0.000215366
0.00021706
0.000218138
0.000218665
0.00021867
0.000218155
0.000217094
0.000215419
0.000212996
0.000209556
0.000204569
0.00019712
0.000185804
0.000167857
0.000138449
9.58937e-05
4.80503e-05
1.84326e-05
1.75001e-05
1.98353e-05
2.2561e-05
5.8735e-05
0.000111881
0.000156172
0.000185491
0.000203143
0.000213447
0.00021954
0.000223214
0.000225475
0.000226898
0.000227797
0.000228335
0.00022859
0.000228595
0.000228352
0.000227829
0.000226947
0.000225543
0.000223302
0.000219649
0.000213575
0.000203297
0.000185685
0.000156396
0.000112096
5.88248e-05
2.25566e-05
1.98395e-05
2.19282e-05
2.67382e-05
6.91937e-05
0.000125867
0.000170222
0.000197694
0.00021367
0.000222521
0.000227314
0.000229879
0.000231241
0.000231959
0.000232336
0.000232527
0.00023261
0.000232616
0.000232544
0.000232366
0.000232005
0.000231304
0.000229959
0.000227407
0.000222628
0.000213795
0.000197839
0.000170365
0.000126015
6.92495e-05
2.67302e-05
2.19332e-05
2.37425e-05
3.08462e-05
7.89567e-05
0.000137799
0.000181206
0.000206332
0.00022025
0.000227539
0.000231167
0.000232868
0.000233597
0.000233862
0.000233926
0.000233921
0.000233908
0.000233914
0.000233938
0.000233956
0.000233906
0.000233653
0.000232935
0.000231242
0.00022762
0.000220336
0.00020642
0.000181275
0.000137877
7.89753e-05
3.08322e-05
2.37495e-05
2.52954e-05
3.47254e-05
8.78169e-05
0.000147784
0.000188943
0.000212279
0.000224411
0.000230333
0.000233007
0.000234066
0.000234374
0.000234367
0.000234262
0.000234158
0.000234101
0.000234106
0.000234174
0.000234288
0.000234404
0.000234419
0.000234116
0.000233059
0.000230384
0.000224459
0.000212325
0.000188983
0.000147804
8.78014e-05
3.47067e-05
2.53022e-05
2.65884e-05
3.82197e-05
9.55618e-05
0.000156151
0.000195369
0.000216621
0.000227131
0.000231916
0.00023385
0.000234453
0.000234494
0.000234338
0.000234153
0.000234011
0.000233937
0.000233942
0.000234024
0.000234175
0.000234366
0.000234525
0.000234484
0.000233876
0.000231936
0.000227142
0.000216625
0.00019536
0.000156121
9.55176e-05
3.81976e-05
2.65947e-05
2.76218e-05
4.11936e-05
0.000101979
0.000162846
0.00020038
0.000219818
0.000228958
0.000232838
0.000234219
0.000234511
0.000234389
0.000234158
0.000233946
0.000233797
0.000233723
0.000233727
0.000233807
0.000233961
0.000234176
0.000234405
0.000234522
0.000234222
0.000232828
0.000228936
0.000219783
0.000200329
0.000162776
0.000101912
4.11686e-05
2.76275e-05
2.8396e-05
4.35317e-05
0.000106918
0.000167903
0.000204048
0.000222071
0.000230167
0.00023338
0.000234373
0.000234462
0.000234246
0.000233984
0.00023377
0.000233627
0.000233559
0.000233561
0.000233633
0.000233778
0.000233992
0.000234249
0.000234456
0.000234356
0.000233348
0.00023012
0.000222007
0.000203966
0.0001678
0.000106836
4.35045e-05
2.84013e-05
2.89116e-05
4.51429e-05
0.000110269
0.000171298
0.000206449
0.000223506
0.000230907
0.000233684
0.000234433
0.0002344
0.000234136
0.000233864
0.000233655
0.000233522
0.000233459
0.00023346
0.000233525
0.000233658
0.000233864
0.00023413
0.000234383
0.000234402
0.000233638
0.000230844
0.000223426
0.000206352
0.000171185
0.00011018
4.51146e-05
2.89166e-05
2.91689e-05
4.59648e-05
0.000111962
0.000172993
0.000207633
0.000224203
0.000231259
0.000233822
0.000234454
0.000234364
0.00023408
0.000233805
0.000233601
0.000233474
0.000233415
0.000233416
0.000233476
0.000233602
0.000233801
0.000234068
0.000234341
0.000234416
0.000233768
0.000231188
0.000224117
0.000207531
0.00017288
0.000111871
4.59359e-05
2.91738e-05
2.91682e-05
4.59657e-05
0.000111966
0.000172994
0.000207633
0.000224202
0.000231258
0.000233822
0.000234454
0.000234365
0.000234081
0.000233807
0.000233603
0.000233476
0.000233417
0.000233417
0.000233477
0.000233603
0.000233803
0.000234069
0.000234342
0.000234417
0.000233769
0.000231189
0.000224117
0.000207532
0.000172881
0.000111875
4.59367e-05
2.91732e-05
2.89096e-05
4.51455e-05
0.00011028
0.0001713
0.000206449
0.000223505
0.000230906
0.000233684
0.000234434
0.000234403
0.000234139
0.000233867
0.000233659
0.000233525
0.000233463
0.000233464
0.000233529
0.000233662
0.000233867
0.000234133
0.000234386
0.000234404
0.000233639
0.000230845
0.000223428
0.000206355
0.000171191
0.000110193
4.51168e-05
2.89148e-05
2.83928e-05
4.35358e-05
0.000106937
0.000167911
0.000204052
0.00022207
0.000230166
0.000233379
0.000234374
0.000234464
0.00023425
0.000233988
0.000233773
0.00023363
0.000233561
0.000233564
0.000233636
0.000233781
0.000233995
0.000234253
0.000234459
0.000234357
0.000233348
0.00023012
0.00022201
0.000203974
0.000167811
0.000106857
4.3508e-05
2.83983e-05
2.76177e-05
4.11987e-05
0.000102008
0.00016287
0.000200393
0.000219821
0.000228957
0.000232836
0.000234219
0.000234512
0.00023439
0.00023416
0.000233947
0.000233796
0.000233722
0.000233725
0.000233806
0.000233961
0.000234176
0.000234406
0.000234522
0.000234221
0.000232826
0.000228934
0.000219786
0.000200342
0.0001628
0.000101941
4.11727e-05
2.76235e-05
2.65836e-05
3.82252e-05
9.55992e-05
0.000156189
0.000195391
0.00021663
0.000227132
0.000231915
0.000233848
0.000234451
0.000234491
0.000234333
0.000234146
0.000234002
0.000233928
0.000233932
0.000234015
0.000234167
0.000234359
0.00023452
0.000234479
0.000233871
0.00023193
0.000227138
0.000216627
0.000195376
0.000156153
9.55523e-05
3.82018e-05
2.65897e-05
2.52902e-05
3.47302e-05
8.78613e-05
0.000147835
0.000188976
0.000212294
0.000224415
0.000230332
0.000233003
0.000234059
0.000234363
0.000234353
0.000234244
0.000234137
0.000234079
0.000234084
0.000234154
0.00023427
0.000234388
0.000234405
0.000234104
0.000233047
0.000230374
0.000224452
0.000212327
0.000189
0.000147842
8.78383e-05
3.47102e-05
2.52964e-05
2.37372e-05
3.08497e-05
7.9006e-05
0.000137864
0.00018124
0.000206355
0.000220261
0.000227541
0.000231161
0.000232855
0.000233577
0.000233836
0.000233895
0.000233886
0.000233872
0.000233878
0.000233904
0.000233925
0.000233879
0.00023363
0.000232916
0.000231227
0.000227609
0.000220331
0.000206424
0.00018129
0.000137917
7.90108e-05
3.08335e-05
2.37432e-05
2.19231e-05
2.67397e-05
6.92471e-05
0.000125953
0.000170278
0.000197738
0.000213695
0.000222531
0.00022731
0.000229862
0.000231213
0.000231922
0.000232292
0.00023248
0.000232561
0.000232567
0.000232499
0.000232325
0.00023197
0.000231274
0.000229936
0.000227394
0.000222624
0.0002138
0.000197856
0.000170393
0.000126065
6.92838e-05
2.67283e-05
2.19279e-05
1.98313e-05
2.25609e-05
5.87959e-05
0.000111995
0.000156275
0.000185564
0.000203189
0.000213471
0.000219542
0.000223196
0.000225442
0.000226855
0.000227748
0.000228281
0.000228534
0.000228541
0.000228301
0.000227784
0.000226909
0.000225512
0.000223281
0.000219645
0.000213587
0.000203324
0.000185728
0.000156459
0.000112168
5.88658e-05
2.25547e-05
1.98342e-05
1.74935e-05
1.84331e-05
4.79974e-05
9.57783e-05
0.000138334
0.000167729
0.000185708
0.000197018
0.000204458
0.000209447
0.000212894
0.000215329
0.000217017
0.000218089
0.000218615
0.000218622
0.000218112
0.000217058
0.000215391
0.000212973
0.000209539
0.00020458
0.000197159
0.000185868
0.000167929
0.000138545
9.59858e-05
4.81063e-05
1.84338e-05
1.74949e-05
1.49259e-05
1.44927e-05
3.716e-05
7.66527e-05
0.00011361
0.000139363
0.000156172
0.000168002
0.00017679
0.00018313
0.000188007
0.000191752
0.000194483
0.000196272
0.00019716
0.000197166
0.000196293
0.000194525
0.000191819
0.000188093
0.000183197
0.000176913
0.000168165
0.000156346
0.000139535
0.000113802
7.6857e-05
3.72684e-05
1.44925e-05
1.49253e-05
1.21531e-05
1.08473e-05
2.62954e-05
5.2959e-05
7.84146e-05
9.64603e-05
0.000109943
0.000120944
0.000130143
0.000137735
0.000143927
0.000148823
0.000152478
0.000154912
0.000156128
0.000156129
0.000154918
0.000152497
0.000148869
0.000144013
0.000137859
0.000130307
0.000121136
0.000110134
9.6628e-05
7.85727e-05
5.31277e-05
2.63877e-05
1.08439e-05
1.21503e-05
9.21811e-06
7.12006e-06
1.46184e-05
2.62702e-05
3.69436e-05
4.62752e-05
5.47838e-05
6.27187e-05
6.99109e-05
7.62363e-05
8.16235e-05
8.60287e-05
8.94045e-05
9.16919e-05
9.28441e-05
9.28396e-05
9.16801e-05
8.93911e-05
8.60247e-05
8.16462e-05
7.62871e-05
6.99849e-05
6.28105e-05
5.48827e-05
4.63747e-05
3.7025e-05
2.63408e-05
1.46529e-05
7.1104e-06
9.21392e-06
5.74352e-06
1.27639e-06
5.16107e-06
9.08125e-06
1.31589e-05
1.70291e-05
2.06776e-05
2.40653e-05
2.71304e-05
2.98493e-05
3.21928e-05
3.41332e-05
3.56407e-05
3.66696e-05
3.71898e-05
3.71876e-05
3.66633e-05
3.56314e-05
3.41231e-05
3.21856e-05
2.9844e-05
2.71266e-05
2.40637e-05
2.06792e-05
1.7031e-05
1.31591e-05
9.07999e-06
5.15802e-06
1.2743e-06
5.73952e-06
3.94603e-06
6.6983e-06
9.36046e-06
1.17472e-05
1.40678e-05
1.62332e-05
1.81983e-05
1.98575e-05
2.12843e-05
2.25033e-05
2.35159e-05
2.43215e-05
2.4917e-05
2.53122e-05
2.55097e-05
2.55104e-05
2.53143e-05
2.49204e-05
2.43257e-05
2.35198e-05
2.25075e-05
2.12885e-05
1.98615e-05
1.82015e-05
1.62352e-05
1.4068e-05
1.17453e-05
9.35655e-06
6.69408e-06
3.94349e-06
3.57565e-06
6.11045e-06
8.70671e-06
1.10626e-05
1.34152e-05
1.56395e-05
1.76925e-05
1.9464e-05
2.1009e-05
2.23318e-05
2.34364e-05
2.43248e-05
2.50071e-05
2.54644e-05
2.56928e-05
2.56914e-05
2.546e-05
2.49999e-05
2.43163e-05
2.34279e-05
2.23216e-05
2.09935e-05
1.94478e-05
1.76791e-05
1.56313e-05
1.34139e-05
1.10687e-05
8.71859e-06
6.12455e-06
3.58438e-06
5.14538e-06
1.64362e-06
7.51661e-06
1.11266e-05
1.47155e-05
1.77175e-05
2.0285e-05
2.27098e-05
2.48218e-05
2.66424e-05
2.81742e-05
2.94086e-05
3.03285e-05
3.0941e-05
3.12487e-05
3.12505e-05
3.0946e-05
3.03351e-05
2.9414e-05
2.81742e-05
2.66361e-05
2.48156e-05
2.27085e-05
2.03225e-05
1.77807e-05
1.47766e-05
1.11736e-05
7.54307e-06
1.66128e-06
5.15939e-06
8.71579e-06
1.03813e-05
1.32243e-05
1.66248e-05
2.17704e-05
2.72165e-05
3.22489e-05
3.67246e-05
4.08302e-05
4.45029e-05
4.75335e-05
4.9989e-05
5.18515e-05
5.31093e-05
5.37551e-05
5.37833e-05
5.31927e-05
5.19854e-05
5.016e-05
4.77044e-05
4.4528e-05
4.08051e-05
3.66733e-05
3.21836e-05
2.71325e-05
2.17095e-05
1.6583e-05
1.32343e-05
1.04761e-05
8.73173e-06
1.15841e-05
1.3574e-05
1.78187e-05
2.53555e-05
3.52809e-05
4.58743e-05
5.54708e-05
6.39711e-05
7.15405e-05
7.84259e-05
8.42545e-05
8.89033e-05
9.23616e-05
9.46646e-05
9.58408e-05
9.59037e-05
9.48487e-05
9.2651e-05
8.9262e-05
8.46122e-05
7.86871e-05
7.16788e-05
6.39685e-05
5.53664e-05
4.57203e-05
3.51165e-05
2.52503e-05
1.78159e-05
1.3658e-05
1.1593e-05
1.44212e-05
1.60362e-05
2.25898e-05
3.5292e-05
5.32979e-05
7.2182e-05
8.84297e-05
0.000101562
0.000112285
0.00012152
0.000129122
0.000134963
0.000139087
0.00014175
0.000143073
0.000143105
0.000141841
0.000139225
0.00013513
0.000129318
0.000121688
0.000112291
0.000101393
8.81146e-05
7.18448e-05
5.30311e-05
3.51305e-05
2.24975e-05
1.61091e-05
1.44212e-05
1.71245e-05
1.82235e-05
2.83525e-05
4.63784e-05
7.18913e-05
9.81764e-05
0.000120564
0.000137131
0.000149147
0.000158384
0.000165577
0.000171006
0.000174845
0.000177291
0.000178488
0.0001785
0.000177326
0.000174893
0.000171054
0.000165607
0.000158354
0.000149022
0.000136908
0.000120182
9.77454e-05
7.15524e-05
4.62186e-05
2.82358e-05
1.82847e-05
1.71175e-05
1.96346e-05
2.05596e-05
3.3762e-05
5.77773e-05
8.96578e-05
0.000120913
0.000145667
0.000163337
0.000175654
0.000184406
0.000190766
0.000195364
0.00019855
0.000200553
0.00020152
0.000201523
0.000200558
0.00019855
0.00019535
0.000190725
0.000184325
0.000175528
0.000163161
0.000145418
0.000120586
8.94416e-05
5.77201e-05
3.37088e-05
2.05594e-05
1.96258e-05
2.19272e-05
2.30519e-05
3.89344e-05
6.86355e-05
0.000105272
0.000138817
0.000163939
0.000181496
0.000193371
0.000201384
0.000206855
0.000210601
0.000213101
0.000214635
0.000215363
0.00021536
0.000214623
0.000213076
0.000210558
0.00020679
0.000201297
0.000193267
0.000181374
0.000163796
0.000138679
0.000105257
6.87373e-05
3.89137e-05
2.30461e-05
2.1918e-05
2.40288e-05
2.53819e-05
4.39013e-05
7.88017e-05
0.000118652
0.000152629
0.000177214
0.000193931
0.000204912
0.000212021
0.00021662
0.000219598
0.000221491
0.000222612
0.000223132
0.000223126
0.000222592
0.000221454
0.000219544
0.000216552
0.000211943
0.000204834
0.000193859
0.000177159
0.000152629
0.000118792
7.90081e-05
4.39115e-05
2.53822e-05
2.40165e-05
2.58734e-05
2.74785e-05
4.84033e-05
8.76125e-05
0.000130047
0.000163469
0.000186956
0.000202491
0.000212386
0.000218544
0.000222331
0.000224646
0.000226038
0.000226825
0.000227178
0.00022717
0.000226802
0.000226
0.000224595
0.000222273
0.000218487
0.00021234
0.000202466
0.000186963
0.000163533
0.000130202
8.78562e-05
4.84412e-05
2.74864e-05
2.58619e-05
2.74377e-05
2.93064e-05
5.23161e-05
9.48303e-05
0.000138569
0.000171643
0.000194046
0.000208394
0.000217225
0.000222497
0.000225576
0.000227344
0.000228339
0.000228868
0.000229095
0.000229088
0.000228848
0.000228307
0.000227306
0.000225538
0.00022247
0.000217217
0.000208416
0.000194107
0.000171757
0.000138759
9.50834e-05
5.23789e-05
2.93217e-05
2.74274e-05
2.87063e-05
3.08266e-05
5.55658e-05
0.000100566
0.000145016
0.000177654
0.000199109
0.000212426
0.000220341
0.00022487
0.000227374
0.000228715
0.000229411
0.000229752
0.000229889
0.000229884
0.000229738
0.000229391
0.000228695
0.000227362
0.000224875
0.000220374
0.000212493
0.000199217
0.000177811
0.000145229
0.000100809
5.56485e-05
3.08482e-05
2.8697e-05
2.96676e-05
3.20027e-05
5.80856e-05
0.00010492
0.00014973
0.000181917
0.000202594
0.000215099
0.000222304
0.000226266
0.000228342
0.000229374
0.00022986
0.000230071
0.000230147
0.000230144
0.000230065
0.000229853
0.000229373
0.000228354
0.000226302
0.000222371
0.000215202
0.000202736
0.0001821
0.000149949
0.000105138
5.81803e-05
3.20294e-05
2.96589e-05
3.03131e-05
3.28048e-05
5.98122e-05
0.000107871
0.000152845
0.000184666
0.000204787
0.000216732
0.000223456
0.000227039
0.000228833
0.000229668
0.00023002
0.000230152
0.000230191
0.00023019
0.000230151
0.000230024
0.000229682
0.000228865
0.000227097
0.000223546
0.000216859
0.00020495
0.000184862
0.000153063
0.000108072
5.99085e-05
3.28342e-05
3.03048e-05
3.06376e-05
3.32107e-05
6.06884e-05
0.000109357
0.000154398
0.000186019
0.000205849
0.000217508
0.000223988
0.000227382
0.000229037
0.000229774
0.000230063
0.000230156
0.000230178
0.000230178
0.000230159
0.000230073
0.000229797
0.00022908
0.000227451
0.000224091
0.000217646
0.000206021
0.000186219
0.000154612
0.000109547
6.07848e-05
3.32411e-05
3.06294e-05
3.06384e-05
3.32081e-05
6.0686e-05
0.000109362
0.000154404
0.000186024
0.000205854
0.00021751
0.000223988
0.000227379
0.000229033
0.000229769
0.000230057
0.00023015
0.000230172
0.000230173
0.000230154
0.000230068
0.000229792
0.000229076
0.000227449
0.00022409
0.000217646
0.000206023
0.000186221
0.000154614
0.000109548
6.07808e-05
3.32384e-05
3.06301e-05
3.03154e-05
3.27973e-05
5.9805e-05
0.000107885
0.000152863
0.000184683
0.000204799
0.000216738
0.000223455
0.000227033
0.000228823
0.000229655
0.000230006
0.000230137
0.000230176
0.000230176
0.000230137
0.000230011
0.00022967
0.000228856
0.000227091
0.000223545
0.000216861
0.000204956
0.000184869
0.000153069
0.000108075
5.98962e-05
3.28259e-05
3.03068e-05
2.96712e-05
3.19903e-05
5.80723e-05
0.000104944
0.00014976
0.000181944
0.000202614
0.00021511
0.000222305
0.000226258
0.000228328
0.000229357
0.000229841
0.000230052
0.000230128
0.000230126
0.000230047
0.000229837
0.000229359
0.000228344
0.000226296
0.000222371
0.000215209
0.000202748
0.000182113
0.00014996
0.000105141
5.81578e-05
3.20158e-05
2.96622e-05
2.87111e-05
3.08098e-05
5.55422e-05
0.000100605
0.000145057
0.000177691
0.000199136
0.000212442
0.000220346
0.000224865
0.000227362
0.000228701
0.000229395
0.000229737
0.000229874
0.000229869
0.000229725
0.000229379
0.000228685
0.000227355
0.000224875
0.000220381
0.000212508
0.000199237
0.000177833
0.000145247
0.00010082
5.56191e-05
3.08309e-05
2.87016e-05
2.74433e-05
2.92867e-05
5.22849e-05
9.48806e-05
0.000138619
0.000171687
0.000194081
0.000208417
0.000217236
0.0002225
0.000225574
0.00022734
0.000228335
0.000228866
0.000229094
0.000229088
0.000228848
0.000228307
0.000227307
0.000225543
0.00022248
0.000217236
0.000208443
0.00019414
0.000171789
0.000138782
9.50967e-05
5.23436e-05
2.93018e-05
2.74332e-05
2.58795e-05
2.74575e-05
4.83688e-05
8.76752e-05
0.000130107
0.00016352
0.000186997
0.000202521
0.000212407
0.000218559
0.000222346
0.000224662
0.000226057
0.000226847
0.000227202
0.000227194
0.000226825
0.000226021
0.000224616
0.000222295
0.000218513
0.000212373
0.000202507
0.000187009
0.000163574
0.000130231
8.78724e-05
4.84053e-05
2.74661e-05
2.58689e-05
2.40351e-05
2.53618e-05
4.3867e-05
7.88737e-05
0.000118734
0.000152687
0.000177261
0.00019397
0.000204946
0.000212055
0.000216659
0.000219642
0.000221542
0.000222668
0.00022319
0.000223183
0.000222646
0.000221505
0.000219592
0.000216597
0.000211989
0.000204883
0.000193915
0.000177217
0.00015268
0.000118829
7.90283e-05
4.38793e-05
2.53642e-05
2.40245e-05
2.19335e-05
2.30358e-05
3.89012e-05
6.86976e-05
0.000105341
0.000138863
0.000163985
0.000181543
0.000193421
0.000201442
0.000206925
0.000210683
0.000213191
0.000214729
0.000215459
0.000215454
0.000214713
0.000213161
0.000210636
0.000206862
0.000201363
0.000193331
0.000181441
0.000163864
0.00013874
0.000105303
6.87606e-05
3.88853e-05
2.3034e-05
2.19245e-05
1.96392e-05
2.05529e-05
3.3723e-05
5.77904e-05
8.97034e-05
0.000120947
0.000145711
0.00016339
0.000175721
0.000184495
0.000190876
0.000195489
0.000198683
0.000200689
0.000201656
0.000201655
0.000200683
0.000198668
0.00019546
0.000190827
0.000184415
0.000175606
0.000163235
0.000145494
0.000120657
8.94997e-05
5.7727e-05
3.36756e-05
2.05548e-05
1.9633e-05
1.71329e-05
1.8265e-05
2.82792e-05
4.63701e-05
7.19218e-05
9.82149e-05
0.000120611
0.000137197
0.000149244
0.000158527
0.000165747
0.000171184
0.000175026
0.000177472
0.000178665
0.000178671
0.000177489
0.000175045
0.000171198
0.000165747
0.000158482
0.000149122
0.000136994
0.000120273
9.78363e-05
7.1618e-05
4.62254e-05
2.8175e-05
1.8324e-05
1.71295e-05
1.44308e-05
1.60756e-05
2.25429e-05
3.52936e-05
5.33152e-05
7.22356e-05
8.8515e-05
0.000101675
0.000112463
0.000121783
0.000129385
0.000135212
0.000139335
0.000141994
0.00014331
0.000143332
0.000142057
0.000139426
0.000135317
0.000129507
0.000121893
0.000112448
0.000101514
8.82375e-05
7.19342e-05
5.3085e-05
3.51573e-05
2.24608e-05
1.61432e-05
1.44334e-05
1.15945e-05
1.36138e-05
1.78383e-05
2.5337e-05
3.52894e-05
4.58944e-05
5.55086e-05
6.40473e-05
7.16919e-05
7.86539e-05
8.45611e-05
8.92434e-05
9.2703e-05
9.49948e-05
9.61565e-05
9.62048e-05
9.51354e-05
9.29202e-05
8.95007e-05
8.48006e-05
7.8845e-05
7.18033e-05
6.40375e-05
5.54163e-05
4.57621e-05
3.51532e-05
2.52459e-05
1.78414e-05
1.3691e-05
1.16041e-05
8.72541e-06
1.04154e-05
1.32373e-05
1.66026e-05
2.17295e-05
2.7156e-05
3.22091e-05
3.66902e-05
4.08087e-05
4.45153e-05
4.76616e-05
5.01354e-05
5.19956e-05
5.32467e-05
5.38857e-05
5.3908e-05
5.33125e-05
5.2099e-05
5.02569e-05
4.77189e-05
4.45111e-05
4.07787e-05
3.66424e-05
3.21502e-05
2.70782e-05
2.16722e-05
1.65644e-05
1.3246e-05
1.04921e-05
8.73924e-06
5.15245e-06
1.64863e-06
7.53026e-06
1.11487e-05
1.4748e-05
1.7752e-05
2.02997e-05
2.26958e-05
2.48016e-05
2.66207e-05
2.81534e-05
2.93845e-05
3.03013e-05
3.09114e-05
3.12171e-05
3.12177e-05
3.0913e-05
3.03029e-05
2.9384e-05
2.81463e-05
2.66091e-05
2.47908e-05
2.26935e-05
2.03522e-05
1.7814e-05
1.48037e-05
1.11903e-05
7.55456e-06
1.66487e-06
5.16492e-06
3.57955e-06
6.11668e-06
8.71349e-06
1.1069e-05
1.3421e-05
1.56443e-05
1.76963e-05
1.94674e-05
2.10129e-05
2.23346e-05
2.34395e-05
2.43298e-05
2.5013e-05
2.54709e-05
2.56999e-05
2.56988e-05
2.54679e-05
2.50081e-05
2.43235e-05
2.3434e-05
2.23281e-05
2.10033e-05
1.94579e-05
1.76898e-05
1.56421e-05
1.34236e-05
1.10767e-05
8.7249e-06
6.12897e-06
3.58718e-06
3.35182e-06
5.70515e-06
8.2344e-06
1.05747e-05
1.29321e-05
1.51637e-05
1.72124e-05
1.89654e-05
2.04918e-05
2.18209e-05
2.29398e-05
2.38403e-05
2.45121e-05
2.49612e-05
2.51867e-05
2.51878e-05
2.49643e-05
2.45171e-05
2.38465e-05
2.2946e-05
2.18277e-05
2.05025e-05
1.89754e-05
1.72183e-05
1.51632e-05
1.29247e-05
1.0561e-05
8.21692e-06
5.68583e-06
3.33927e-06
4.85103e-06
2.44574e-06
1.06341e-05
1.58372e-05
2.08821e-05
2.5406e-05
2.92956e-05
3.23115e-05
3.46283e-05
3.63684e-05
3.76731e-05
3.8643e-05
3.93426e-05
3.9799e-05
4.00243e-05
4.00236e-05
3.97974e-05
3.93408e-05
3.86426e-05
3.76732e-05
3.63678e-05
3.46251e-05
3.23037e-05
2.92418e-05
2.53152e-05
2.07871e-05
1.5762e-05
1.05945e-05
2.38957e-06
4.82984e-06
8.25533e-06
1.28655e-05
1.72873e-05
2.11119e-05
2.4071e-05
2.71075e-05
3.01387e-05
3.30806e-05
3.58539e-05
3.82336e-05
4.02721e-05
4.19158e-05
4.31584e-05
4.39959e-05
4.44244e-05
4.44413e-05
4.40478e-05
4.32457e-05
4.20381e-05
4.043e-05
3.84744e-05
3.61104e-05
3.33039e-05
3.02e-05
2.71321e-05
2.40957e-05
2.11388e-05
1.72587e-05
1.27085e-05
8.23047e-06
1.10385e-05
1.80055e-05
2.32421e-05
2.4984e-05
2.88612e-05
3.47683e-05
4.1563e-05
4.78764e-05
5.32604e-05
5.75541e-05
6.11625e-05
6.4126e-05
6.64079e-05
6.79455e-05
6.87068e-05
6.86785e-05
6.78625e-05
6.62765e-05
6.39605e-05
6.09923e-05
5.74398e-05
5.32518e-05
4.79666e-05
4.16519e-05
3.47472e-05
2.89308e-05
2.50274e-05
2.31756e-05
1.78662e-05
1.10196e-05
1.37898e-05
2.1968e-05
2.6361e-05
2.96511e-05
3.83237e-05
5.11567e-05
6.31626e-05
7.26078e-05
8.02056e-05
8.64079e-05
9.14616e-05
9.55164e-05
9.88403e-05
0.000101112
0.000102252
0.000102243
0.000101086
9.88017e-05
9.54622e-05
9.1343e-05
8.6391e-05
8.034e-05
7.28689e-05
6.33564e-05
5.10996e-05
3.82131e-05
2.96847e-05
2.63417e-05
2.18514e-05
1.37821e-05
1.64302e-05
2.54618e-05
2.86145e-05
3.60549e-05
5.14973e-05
7.0133e-05
8.8154e-05
0.000102453
0.000113803
0.000122461
0.000129052
0.000134039
0.00013774
0.000140201
0.000141426
0.000141424
0.000140197
0.000137745
0.000134065
0.000129124
0.000122654
0.000114144
0.000102922
8.87691e-05
7.03585e-05
5.16221e-05
3.61602e-05
2.86412e-05
2.53799e-05
1.64333e-05
1.89114e-05
2.8213e-05
3.11477e-05
4.38125e-05
6.41474e-05
8.84074e-05
0.000111632
0.000129908
0.00014326
0.000152947
0.000159963
0.000165018
0.000168558
0.00017082
0.00017193
0.000171946
0.000170871
0.000168653
0.000165171
0.000160186
0.000153246
0.000143616
0.000130317
0.000112145
8.8921e-05
6.4383e-05
4.38806e-05
3.13176e-05
2.82052e-05
1.89198e-05
2.11985e-05
3.03296e-05
3.43997e-05
5.10634e-05
7.53692e-05
0.000104507
0.000130908
0.000150791
0.000164996
0.000174988
0.000181952
0.000186752
0.000189964
0.000191944
0.000192899
0.000192923
0.000192018
0.000190092
0.000186938
0.000182192
0.000175268
0.000165298
0.000151107
0.000131224
0.000104748
7.54057e-05
5.099e-05
3.45789e-05
3.03267e-05
2.121e-05
2.32361e-05
3.20146e-05
3.77261e-05
5.72804e-05
8.5195e-05
0.000118361
0.000145894
0.000166137
0.000180377
0.00019017
0.000196796
0.000201199
0.000204031
0.000205718
0.000206515
0.00020654
0.000205793
0.000204155
0.000201369
0.000197002
0.000190394
0.000180599
0.000166339
0.000146045
0.000118353
8.49617e-05
5.71092e-05
3.78773e-05
3.20137e-05
2.32516e-05
2.50271e-05
3.33931e-05
4.09637e-05
6.3199e-05
9.49677e-05
0.000129898
0.00015744
0.000177336
0.000191119
0.000200416
0.000206547
0.000210492
0.00021294
0.000214351
0.000215002
0.000215023
0.000214414
0.000213042
0.000210624
0.000206699
0.00020057
0.000191257
0.00017744
0.00015748
0.000129811
9.46992e-05
6.29898e-05
4.10682e-05
3.33944e-05
2.50438e-05
2.65532e-05
3.45238e-05
4.39092e-05
6.84907e-05
0.000103505
0.000138954
0.000166147
0.000185414
0.000198539
0.000207223
0.000212811
0.0002163
0.000218392
0.000219557
0.000220081
0.000220097
0.000219603
0.000218463
0.000216387
0.000212902
0.000207303
0.000198593
0.000185425
0.000166091
0.000138787
0.000103193
6.8272e-05
4.39592e-05
3.45273e-05
2.65706e-05
2.77969e-05
3.54367e-05
4.64266e-05
7.29267e-05
0.000110389
0.000145882
0.000172546
0.000191126
0.000203576
0.000211658
0.000216739
0.000219821
0.000221608
0.00022257
0.00022299
0.000223
0.000222598
0.000221648
0.000219863
0.000216772
0.000211669
0.000203552
0.000191053
0.000172405
0.000145646
0.000110055
7.27155e-05
4.64229e-05
3.54426e-05
2.78147e-05
2.87427e-05
3.61339e-05
4.8409e-05
7.63005e-05
0.000115521
0.000150905
0.000177046
0.000195013
0.000206881
0.000214454
0.000219117
0.000221874
0.000223424
0.000224231
0.000224572
0.000224577
0.000224242
0.000223437
0.000221879
0.000219103
0.00021441
0.000206794
0.000194874
0.000176843
0.000150626
0.00011519
7.61151e-05
4.837e-05
3.61434e-05
2.8761e-05
2.93791e-05
3.66052e-05
4.97499e-05
7.85437e-05
0.000118907
0.000154173
0.000179919
0.000197436
0.00020888
0.000216091
0.000220459
0.00022299
0.000224379
0.000225082
0.00022537
0.000225371
0.000225082
0.000224373
0.000222968
0.000220412
0.000216007
0.000208752
0.000197254
0.00017968
0.000153878
0.00011859
7.83872e-05
4.97296e-05
3.66186e-05
2.93977e-05
2.96984e-05
3.6843e-05
5.04319e-05
7.96697e-05
0.000120588
0.000155786
0.000181323
0.000198603
0.000209828
0.000216849
0.000221066
0.000223483
0.00022479
0.00022544
0.000225702
0.000225701
0.000225434
0.000224773
0.000223448
0.000221003
0.000216747
0.000209679
0.000198404
0.000181071
0.000155489
0.000120284
7.95291e-05
5.04147e-05
3.68579e-05
2.97173e-05
2.96968e-05
3.68406e-05
5.04324e-05
7.96659e-05
0.000120589
0.00015579
0.000181329
0.000198612
0.000209839
0.000216861
0.000221079
0.000223495
0.000224801
0.000225451
0.000225713
0.000225712
0.000225445
0.000224785
0.00022346
0.000221016
0.000216761
0.000209693
0.000198416
0.000181083
0.000155499
0.000120292
7.95279e-05
5.0416e-05
3.68552e-05
2.97158e-05
2.93744e-05
3.65981e-05
4.97522e-05
7.85331e-05
0.000118908
0.000154184
0.000179939
0.000197462
0.000208912
0.000216125
0.000220494
0.000223025
0.000224412
0.000225112
0.0002254
0.000225401
0.000225113
0.000224406
0.000223005
0.00022045
0.000216047
0.000208791
0.000197292
0.000179715
0.000153909
0.000118614
7.83874e-05
4.97364e-05
3.66113e-05
2.93933e-05
2.87352e-05
3.61222e-05
4.84207e-05
7.6289e-05
0.000115526
0.000150924
0.00017708
0.000195058
0.000206932
0.00021451
0.000219173
0.000221927
0.000223474
0.000224277
0.000224617
0.000224621
0.000224289
0.000223488
0.000221934
0.000219162
0.000214471
0.000206855
0.000194933
0.000176899
0.000150678
0.000115234
7.61282e-05
4.84058e-05
3.61318e-05
2.87536e-05
2.77868e-05
3.5423e-05
4.64919e-05
7.29214e-05
0.0001104
0.000145914
0.000172596
0.000191188
0.000203645
0.00021173
0.000216809
0.000219887
0.000221669
0.000222626
0.000223042
0.000223052
0.000222653
0.000221709
0.000219931
0.000216845
0.000211746
0.00020363
0.000191129
0.000172478
0.000145716
0.000110119
7.27363e-05
4.6483e-05
3.54276e-05
2.78045e-05
2.65412e-05
3.45099e-05
4.401e-05
6.84879e-05
0.00010352
0.000138997
0.000166214
0.000185493
0.000198623
0.000207307
0.000212891
0.000216372
0.000218456
0.000219614
0.000220133
0.000220148
0.000219658
0.000218525
0.000216458
0.000212981
0.000207388
0.000198681
0.000185514
0.000166177
0.000138869
0.000103275
6.8309e-05
4.40517e-05
3.45106e-05
2.65578e-05
2.50137e-05
3.33795e-05
4.10844e-05
6.31876e-05
9.4975e-05
0.000129949
0.000157524
0.000177429
0.000191213
0.000200507
0.00020663
0.000210563
0.000212999
0.0002144
0.000215045
0.000215065
0.00021446
0.000213097
0.000210691
0.000206776
0.000200657
0.00019135
0.000177536
0.000157577
0.000129901
9.47839e-05
6.30311e-05
4.11725e-05
3.33775e-05
2.50288e-05
2.3222e-05
3.20022e-05
3.78566e-05
5.7257e-05
8.51791e-05
0.000118423
0.000145992
0.000166239
0.000180476
0.000190261
0.000196875
0.000201261
0.000204078
0.000205753
0.000206543
0.000206567
0.000205825
0.000204197