/*--------------------------------*- C++ -*----------------------------------*\
| =========                 |                                                 |
| \\      /  F ield         | OpenFOAM: The Open Source CFD Toolbox           |
|  \\    /   O peration     | Version:  2312                                  |
|   \\  /    A nd           | Website:  www.openfoam.com                      |
|    \\/     M anipulation  |                                                 |
\*---------------------------------------------------------------------------*/
FoamFile
{
    version     2.0;
    format      ascii;
    arch        "LSB;label=32;scalar=64";
    class       surfaceScalarField;
    location    "900";
    object      phi;
}
// * * * * * * * * * * * * * * * * * * * * * * * * * * * * * * * * * * * * * //

dimensions      [1 0 -1 0 0 0 0];

oriented        oriented;

internalField   nonuniform List<scalar> 
78300
(
-0.000106567
0.000311944
0.00755401
0.00262759
0.00133546
0.00976844
0.00249515
0.00476631
0.0150035
0.0026964
0.00532024
0.0196035
0.00287877
0.00591629
0.0241715
0.00300692
0.00642501
0.0284912
0.00305244
0.00687983
0.0324954
0.00299369
0.00726298
0.0361706
0.00281453
0.0075724
0.0394913
0.00252219
0.00781407
0.0424085
0.00213472
0.0079973
0.044885
0.00167266
0.00813203
0.046894
0.00115583
0.00822706
0.0484158
0.000604251
0.00828687
0.049437
3.67675e-05
0.00831523
0.0499492
-0.000528172
0.00831393
0.049948
-0.00107203
0.00828288
0.0494333
-0.00157572
0.00822017
0.0484096
-0.00201907
0.0081221
0.0468852
-0.00238236
0.00798421
0.0448739
-0.00264566
0.00779771
0.0423958
-0.00279265
0.00755384
0.0394777
-0.00282077
0.00724615
0.0361568
-0.00275449
0.00687119
0.0324832
-0.00262466
0.00643195
0.0284826
-0.00246241
0.00594022
0.0241677
-0.00231428
0.0053718
0.019605
-0.00252899
0.0048428
0.0150093
0.000147621
0.00138468
0.00977677
0.000342967
0.00756404
0.00323228
0.00436966
0.00973171
0.00538991
0.00413147
0.017936
0.00628849
0.0074089
0.0249469
0.00635762
0.00829516
0.0307416
0.00623521
0.0088246
0.035967
0.00601049
0.00921497
0.0407969
0.00570931
0.00953261
0.0452357
0.0053172
0.00980188
0.0492582
0.00481788
0.0100233
0.0528422
0.00420863
0.0101951
0.0559627
0.00350117
0.0103211
0.0585944
0.00271431
0.0104091
0.0607185
0.00187015
0.0104666
0.0623217
0.000989278
0.0105004
0.0633947
9.19365e-05
0.0105148
0.0639317
-0.000802425
0.0105124
0.0639298
-0.00167448
0.0104933
0.063389
-0.00250456
0.0104551
0.0623122
-0.00327299
0.0103936
0.0607056
-0.0039597
0.0103033
0.0585784
-0.00454894
0.0101772
0.0559443
-0.00503466
0.0100101
0.0528232
-0.00542565
0.00980102
0.0492411
-0.00574472
0.00955379
0.0452238
-0.00601223
0.0092672
0.0407944
-0.00620559
0.00890933
0.0359772
-0.00621948
0.0084076
0.0307638
-0.00538741
0.00752287
0.0249759
-0.00328383
0.00420448
0.0179663
0.00433708
0.00974376
0.00686638
0.00384726
0.0199226
0.0095228
0.0060683
0.0273335
0.0102211
0.00886741
0.0351703
0.00980258
0.00971596
0.0414354
0.00904567
0.0100771
0.046734
0.00823109
0.0102753
0.0514305
0.00742291
0.0104172
0.0556763
0.00661738
0.0105418
0.0595017
0.00579413
0.0106532
0.062899
0.00493604
0.0107454
0.0658509
0.00403646
0.0108139
0.0683394
0.00309784
0.0108599
0.0703482
0.00212817
0.0108876
0.0718645
0.00113802
0.0109018
0.0728796
0.000138493
0.0109066
0.0733874
-0.000858748
0.0109042
0.0733851
-0.00184256
0.010895
0.0728729
-0.00280276
0.0108772
0.071854
-0.00373088
0.0108477
0.0703345
-0.00462218
0.0108029
0.0683242
-0.00547906
0.0107405
0.0658367
-0.00631339
0.010662
0.0628881
-0.00714741
0.0105734
0.0594977
-0.00800488
0.0104806
0.0556833
-0.00888892
0.0103753
0.0514522
-0.00972967
0.0102092
0.0467705
-0.0102255
0.0098609
0.0414801
-0.00956926
0.00898386
0.03521
-0.00689328
0.00609361
0.0273617
0.00377593
0.0199345
0.00698422
0.00431903
0.0279163
0.0101372
0.00686915
0.0368764
0.0110016
0.00936068
0.0446801
0.0106975
0.0101166
0.0508695
0.00990089
0.0104162
0.056045
0.00894706
0.0105335
0.0605718
0.0079646
0.0105828
0.0646247
0.00699174
0.0106157
0.0682596
0.00603124
0.0106469
0.0714813
0.00507448
0.0106753
0.0742784
0.00411177
0.0106967
0.0766364
0.00313835
0.0107088
0.0785408
0.00215368
0.0107132
0.0799795
0.00116052
0.0107127
0.0809431
0.00016343
0.0107106
0.0814256
-0.000832749
0.0107088
0.081424
-0.00182335
0.010708
0.0809385
-0.00280545
0.0107071
0.0799726
-0.00377873
0.0107044
0.0785329
-0.00474718
0.0106982
0.0766296
-0.00572026
0.0106894
0.0742758
-0.00671121
0.0106814
0.071486
-0.00773094
0.0106786
0.0682753
-0.0087763
0.0106795
0.0646544
-0.00980376
0.0106623
0.0606166
-0.0106739
0.0105659
0.056101
-0.0110317
0.0102603
0.0509245
-0.0101822
0.00945469
0.0447175
-0.0070155
0.00686193
0.0368952
0.00421163
0.0279211
0.00788245
0.00458009
0.0360751
0.0108116
0.00736372
0.0460584
0.0114241
0.00946271
0.05379
0.0110603
0.0100674
0.0596708
0.010265
0.0103066
0.0646203
0.00928974
0.0103813
0.0689797
0.0082517
0.0103846
0.0728813
0.0072052
0.0103641
0.0763705
0.0061716
0.0103399
0.0794557
0.00515462
0.0103177
0.0821304
0.00415048
0.0102972
0.0843833
0.00315353
0.0102773
0.0862025
0.00215966
0.010259
0.0875769
0.00116668
0.0102441
0.0884979
0.000173652
0.0102354
0.0889596
-0.000819666
0.0102346
0.088959
-0.00181424
0.0102424
0.0884965
-0.00281224
0.0102586
0.0875754
-0.0038184
0.0102822
0.0862024
-0.00483984
0.0103126
0.0843868
-0.00588506
0.0103504
0.08214
-0.00695976
0.0103968
0.0794744
-0.00805981
0.0104505
0.0764005
-0.00915993
0.0105011
0.0729234
-0.010199
0.0105214
0.0690321
-0.0110488
0.0104543
0.0646767
-0.0114448
0.010195
0.0597191
-0.0108319
0.00953093
0.0538154
-0.00788546
0.00733554
0.046062
0.00447359
0.0360712
0.0085164
0.00471822
0.0440341
0.011261
0.00752765
0.0548592
0.0116695
0.00928445
0.0623844
0.0112292
0.0097551
0.0679546
0.0104306
0.00993202
0.0726775
0.0094632
0.00997215
0.0768739
0.00841896
0.00994608
0.0806413
0.00734928
0.00989178
0.0840092
0.00628225
0.00982897
0.0869825
0.00523081
0.00976702
0.0895562
0.00419745
0.00971022
0.0917215
0.00317934
0.00966072
0.0934684
0.00217217
0.00962018
0.0947878
0.00117132
0.00959115
0.0956719
0.000172897
0.00957583
0.0961154
-0.000827141
0.0095762
0.0961158
-0.00183305
0.00959309
0.0956733
-0.00285021
0.0096265
0.0947911
-0.0038847
0.00967553
0.0934749
-0.00494308
0.00973925
0.0917329
-0.00602932
0.00981619
0.0895745
-0.00714076
0.00990348
0.0870094
-0.00826212
0.00999388
0.0840452
-0.00936035
0.0100726
0.0806853
-0.0103772
0.0101135
0.0769222
-0.0112122
0.0100705
0.0727232
-0.0116691
0.00986658
0.0679874
-0.0112564
0.0093383
0.0623944
-0.00850249
0.00750029
0.0548491
0.00463604
0.0440237
0.00899674
0.00472158
0.0516701
0.011538
0.0074286
0.0631349
0.0118
0.00887873
0.0704037
0.0113102
0.00923876
0.0756987
0.010515
0.00935919
0.0802181
0.00956603
0.00936875
0.0842612
0.00853555
0.00932012
0.0879036
0.0074675
0.00924246
0.0911624
0.00639041
0.00915248
0.0940378
0.00532069
0.00906105
0.0965242
0.00426549
0.00897545
0.098614
0.00322573
0.00890068
0.100299
0.00219842
0.00884065
0.10157
0.00117922
0.00879864
0.102422
0.000162904
0.00877749
0.10285
-0.000855935
0.00877928
0.102851
-0.00188301
0.00880488
0.102426
-0.0029242
0.00885417
0.101577
-0.00398504
0.00892578
0.100309
-0.005069
0.00901716
0.0986301
-0.00617517
0.00912423
0.0965467
-0.00729478
0.0092403
0.094067
-0.00840798
0.0093545
0.0911976
-0.00948167
0.00945101
0.0879425
-0.010466
0.00950734
0.0842993
-0.0112843
0.00948978
0.080249
-0.0117816
0.00934144
0.075715
-0.011516
0.00893205
0.0704007
-0.00897486
0.00741911
0.0631171
0.00467684
0.0516545
0.0093579
0.00457778
0.0588433
0.0117191
0.00709501
0.0707786
0.0118702
0.00827864
0.0777876
0.0113503
0.0085464
0.0828413
0.0105639
0.008619
0.0871802
0.00963763
0.00860197
0.0910822
0.00862894
0.00853587
0.0946078
0.00757453
0.0084419
0.097766
0.00649992
0.00833382
0.100553
0.00542204
0.00822225
0.102963
0.00435039
0.00811611
0.104987
0.00328857
0.00802256
0.106618
0.00223605
0.00794742
0.107848
0.0011898
0.00789528
0.108673
0.000145395
0.00786972
0.109086
-0.000902069
0.00787299
0.109088
-0.00195781
0.00790614
0.108677
-0.00302637
0.00796841
0.107857
-0.00411097
0.00805757
0.106631
-0.00521181
0.00816931
0.105005
-0.00632414
0.00829714
0.102986
-0.00743605
0.0084317
0.100581
-0.0085273
0.00856063
0.0977961
-0.00956839
0.00866902
0.0946379
-0.0105191
0.00873907
0.0911081
-0.0113191
0.00874662
0.0871968
-0.0118424
0.00864988
0.0828439
-0.0116904
0.00834356
0.0777751
-0.00933647
0.00711413
0.0707572
0.00457151
0.0588262
0.00963947
0.00428062
0.0654098
0.0118454
0.0065506
0.0776972
0.0119114
0.00750493
0.0844635
0.0113719
0.00769709
0.0893072
0.0105963
0.00773093
0.093487
0.00969275
0.00769243
0.0972612
0.00870828
0.00761346
0.100679
0.00767255
0.00750928
0.103745
0.00660708
0.00739072
0.106454
0.00552718
0.00726772
0.108796
0.00444295
0.00714953
0.110763
0.00335976
0.00704464
0.112347
0.00227938
0.00696014
0.113542
0.001201
0.00690176
0.114343
0.000122319
0.00687372
0.114745
-0.000959712
0.00687859
0.114747
-0.00204797
0.00691717
0.114348
-0.00314465
0.00698836
0.113552
-0.00425001
0.00708884
0.11236
-0.00536126
0.0072129
0.11078
-0.0064712
0.00735237
0.108816
-0.00756735
0.0074967
0.106476
-0.00863146
0.00763347
0.103768
-0.00963918
0.00774947
0.1007
-0.0105587
0.00783115
0.0972755
-0.0113423
0.00786179
0.0934917
-0.0118834
0.00780952
0.0892998
-0.0118183
0.00758907
0.0844452
-0.00962169
0.0066015
0.0776748
0.00430852
0.0653935
0.00985642
0.00383915
0.0712506
0.0119345
0.00581618
0.0838036
0.0119376
0.00657303
0.0903542
0.0113855
0.00670553
0.0950196
0.0106209
0.00671
0.0990613
0.00973839
0.00665641
0.102722
0.0087774
0.00656959
0.106044
0.00776152
0.00646092
0.109027
0.00670775
0.00633903
0.111666
0.00562904
0.00621263
0.113948
0.00453487
0.00609077
0.115866
0.00343163
0.00598219
0.117412
0.00232307
0.00589463
0.118577
0.00121089
0.00583443
0.119358
9.56269e-05
0.00580611
0.11975
-0.00102282
0.00581245
0.119752
-0.00214436
0.0058541
0.119363
-0.003268
0.00592947
0.118586
-0.00439103
0.00603457
0.117423
-0.00550833
0.00616292
0.115881
-0.0066116
0.00630565
0.113965
-0.00768908
0.00645204
0.111682
-0.00872562
0.0065906
0.109043
-0.00970237
0.00671013
0.106055
-0.0105948
0.00680034
0.102727
-0.0113635
0.00684914
0.0990572
-0.0119159
0.00683203
0.0950057
-0.0119141
0.00667973
0.090333
-0.00984418
0.00589698
0.0837819
0.00389416
0.0712357
0.0100204
0.00326921
0.0762684
0.0119963
0.00491543
0.0890192
0.0119544
0.00549978
0.0953867
0.0113957
0.00558619
0.0999047
0.0106422
0.00557055
0.10383
0.00977882
0.00550884
0.107393
0.00883906
0.00541999
0.110631
0.00784156
0.00531282
0.113544
0.00679936
0.00519434
0.116122
0.00572279
0.00507207
0.118354
0.00462026
0.00495433
0.120231
0.00349861
0.00484943
0.121743
0.00236319
0.004765
0.122884
0.00121829
0.00470731
0.123649
6.73547e-05
0.00468098
0.124032
-0.00108638
0.00468862
0.124034
-0.00223945
0.00473074
0.123653
-0.00338769
0.00480554
0.122892
-0.00452576
0.00490881
0.121753
-0.00564674
0.00503393
0.120242
-0.006742
0.00517225
0.118366
-0.00780132
0.00531383
0.116132
-0.00881274
0.00544842
0.113552
-0.00976218
0.00556675
0.110635
-0.0106306
0.00566066
0.10739
-0.0113852
0.00572105
0.10382
-0.0119425
0.00572912
0.0998869
-0.0119842
0.00562863
0.0953644
-0.0100138
0.00502177
0.0889991
0.00334418
0.076255
0.010141
0.0025917
0.0803812
0.0120386
0.00387562
0.0932763
0.0119662
0.00430535
0.0994958
0.0114054
0.00435687
0.103897
0.0106626
0.00432948
0.107729
0.00981601
0.00426621
0.111212
0.00889443
0.00418129
0.114381
0.00791256
0.0040816
0.117235
0.0068802
0.00397289
0.119763
0.00580533
0.00386164
0.121954
0.00469528
0.00375503
0.123797
0.00355704
0.00366043
0.125283
0.00239734
0.00358471
0.126405
0.00122264
0.00353355
0.127156
3.9292e-05
0.00351115
0.127533
-0.00114632
0.00351985
0.127534
-0.00232759
0.00356004
0.12716
-0.00349743
0.00362991
0.12641
-0.00464824
0.00372549
0.12529
-0.00577188
0.00384072
0.123805
-0.00685984
0.00396789
0.121961
-0.00790334
0.00409831
0.119768
-0.00889332
0.00422332
0.117237
-0.00981942
0.0043352
0.114379
-0.010667
0.00442733
0.111204
-0.0114077
0.00449247
0.107714
-0.0119648
0.00451617
0.103877
-0.0120346
0.00445414
0.0994734
-0.0101392
0.00400245
0.0932579
0.00268067
0.0803691
0.010226
0.0018305
0.0835235
0.0120672
0.0027272
0.0965193
0.0119758
0.00301428
0.102627
0.0114162
0.0030392
0.106941
0.0106833
0.00300684
0.110702
0.00985057
0.00294769
0.114125
0.00894345
0.00287205
0.117242
0.0079737
0.00278525
0.12005
0.00694857
0.00269206
0.12254
0.00587426
0.00259778
0.1247
0.00475721
0.00250826
0.126517
0.0036045
0.00242954
0.127983
0.00242394
0.00236717
0.12909
0.00122384
0.00232585
0.129831
1.2958e-05
0.00230899
0.130203
-0.00119963
0.00231851
0.130204
-0.00240461
0.00235464
0.129834
-0.00359252
0.00241585
0.129094
-0.00475403
0.00249882
0.127988
-0.0058801
0.00259855
0.126522
-0.00696238
0.00270877
0.124703
-0.00799339
0.00282247
0.122541
-0.00896624
0.00293268
0.120048
-0.00987336
0.00303305
0.117234
-0.0107032
0.00311808
0.114113
-0.0114309
0.00318188
0.110685
-0.011984
0.00321343
0.106919
-0.0120701
0.00318008
0.102605
-0.0102277
0.00287009
0.096502
0.00192913
0.0835122
0.0102809
0.00101116
0.085646
0.0120866
0.00150292
0.0987059
0.0119852
0.00165463
0.104739
0.0114287
0.00165845
0.108994
0.0107042
0.00162584
0.112709
0.00988181
0.0015751
0.116091
0.00898495
0.00151296
0.119172
0.00802329
0.00144345
0.12195
0.0070024
0.00137034
0.124415
0.00592729
0.00129772
0.126553
0.00480378
0.00122995
0.128353
0.00363913
0.00117133
0.129806
0.0024419
0.00112585
0.130902
0.00122184
0.00109682
0.131637
-1.04808e-05
0.00108665
0.132006
-0.00124399
0.00109668
0.132006
-0.00246735
0.00112707
0.131639
-0.00366941
0.00117672
0.130905
-0.00483949
0.00124324
0.129808
-0.005968
0.0013231
0.128355
-0.0070467
0.0014118
0.126553
-0.00806897
0.00150427
0.124412
-0.00902936
0.00159529
0.121945
-0.00992223
0.00167991
0.119162
-0.0107381
0.00175354
0.116076
-0.0114543
0.00181135
0.11269
-0.0120014
0.0018454
0.108972
-0.0120946
0.00183448
0.104717
-0.0102848
0.00165849
0.0986891
0.00111684
0.0856351
0.0103092
0.000160478
0.0867159
0.0120995
0.000237381
0.0998071
0.0119957
0.000256942
0.105803
0.0114429
0.000242405
0.11003
0.0107242
0.000212156
0.113721
0.00990824
0.000172411
0.117082
0.009017
0.000126481
0.120146
0.00805915
7.71615e-05
0.122909
0.00703939
2.72132e-05
0.12536
0.00596212
-2.06091e-05
0.127487
0.00483297
-6.36416e-05
0.129279
0.00365933
-9.94307e-05
0.130725
0.00245034
-0.000125824
0.131817
0.00121662
-0.000141085
0.132548
-3.01684e-05
-0.000143937
0.132915
-0.0012777
-0.000133678
0.132916
-0.00251346
-0.000110218
0.132549
-0.00372522
-7.41174e-05
0.131818
-0.00490159
-2.66162e-05
0.130727
-0.00603251
3.03927e-05
0.12928
-0.00710981
9.44293e-05
0.127486
-0.00812727
0.000162508
0.125356
-0.00908021
0.000231302
0.122902
-0.00996396
0.00029725
0.120135
-0.0107702
0.000356703
0.117067
-0.0114774
0.000405803
0.113701
-0.0120181
0.000439615
0.110007
-0.0121112
0.000448232
0.105781
-0.0103144
0.000403196
0.0997904
0.000271727
0.086705
0.0103121
-0.000693949
0.0867166
0.0121068
-0.00103381
0.0998084
0.0120072
-0.00114687
0.105805
0.0114581
-0.00117963
0.110032
0.0107423
-0.00120711
0.113723
0.0099282
-0.00123512
0.117085
0.00903767
-0.00126383
0.120149
0.00807919
-0.00129177
0.122912
0.00705743
-0.00131726
0.125363
0.00597681
-0.00133898
0.127491
0.00484308
-0.00135606
0.129282
0.00366385
-0.00136799
0.130728
0.00244854
-0.00137454
0.13182
0.00120806
-0.00137558
0.132551
-4.55431e-05
-0.00137102
0.132918
-0.00129959
-0.00136083
0.132919
-0.00254123
-0.00134493
0.132553
-0.00375792
-0.00132334
0.131822
-0.00493798
-0.00129609
0.13073
-0.00607121
-0.00126336
0.129283
-0.00714928
-0.00122552
0.12749
-0.00816597
-0.00118336
0.12536
-0.00911665
-0.00113826
0.122905
-0.0099968
-0.00109225
0.120138
-0.0107983
-0.00104795
0.11707
-0.0115
-0.00100818
0.113704
-0.0120345
-0.00097484
0.11001
-0.0121211
-0.000946413
0.105783
-0.0103181
-0.000859417
0.0997915
-0.000577679
0.0867056
0.0102897
-0.00152427
0.0856482
0.0121082
-0.00227469
0.0987097
0.0120191
-0.00252451
0.104745
0.0114733
-0.00257809
0.109001
0.0107572
-0.00260449
0.112717
0.00994039
-0.00262191
0.116099
0.00904555
-0.00263419
0.119181
0.00808197
-0.00264132
0.12196
0.0070551
-0.0026429
0.124424
0.00597004
-0.00263912
0.126563
0.00483303
-0.00263092
0.128363
0.0036519
-0.00261972
0.129816
0.00243603
-0.00260714
0.130912
0.0011961
-0.00259458
0.131647
-5.62868e-05
-0.00258309
0.132016
-0.001309
-0.00257319
0.132016
-0.00254967
-0.00256492
0.131649
-0.00376623
-0.00255771
0.130915
-0.00494725
-0.00255053
0.129818
-0.00608255
-0.00254186
0.128365
-0.00716358
-0.00253005
0.126563
-0.00818362
-0.00251368
0.124422
-0.0091374
-0.00249206
0.121954
-0.0100197
-0.00246556
0.119172
-0.0108216
-0.00243562
0.116085
-0.0115212
-0.00240374
0.112698
-0.0120501
-0.00236857
0.10898
-0.0121242
-0.00231696
0.104723
-0.010296
-0.00209278
0.0986924
-0.00140299
0.0856369
0.0102399
-0.00230287
0.083527
0.0121017
-0.00344967
0.0965253
0.01203
-0.00384441
0.102636
0.0114876
-0.00392413
0.106952
0.0107681
-0.00395339
0.110715
0.00994403
-0.00396316
0.114139
0.00903986
-0.0039614
0.117257
0.00806676
-0.00394998
0.120066
0.00703177
-0.00392993
0.122556
0.00594132
-0.00390305
0.124716
0.00480244
-0.00387206
0.126533
0.00362322
-0.0038402
0.127999
0.00241271
-0.00381068
0.129106
0.00118072
-0.00378621
0.129847
-6.23475e-05
-0.00376877
0.130219
-0.00130574
-0.00375939
0.13022
-0.00253852
-0.00375816
0.12985
-0.00374979
-0.00376413
0.129109
-0.00492893
-0.00377533
0.128004
-0.00606602
-0.00378887
0.126538
-0.00715217
-0.00380125
0.124719
-0.00817973
-0.00380892
0.122557
-0.00914207
-0.00380908
0.120063
-0.0100322
-0.00380025
0.11725
-0.0108396
-0.00378228
0.114128
-0.0115406
-0.00375498
0.110699
-0.0120641
-0.00371327
0.106932
-0.012119
-0.00363193
0.102615
-0.0102463
-0.00326099
0.0965076
-0.00217617
0.0835152
0.0101591
-0.00300298
0.0803857
0.0120839
-0.0045242
0.0932838
0.0120376
-0.00507686
0.0995078
0.0114994
-0.00519096
0.103912
0.0107741
-0.00522916
0.107746
0.00993848
-0.00523572
0.111231
0.00902024
-0.00522367
0.114402
0.00803337
-0.00519727
0.117256
0.00698746
-0.00515933
0.119785
0.00589083
-0.00511336
0.121976
0.00475166
-0.00506381
0.123819
0.00357823
-0.00501539
0.125305
0.00237889
-0.0049725
0.126426
0.00116207
-0.00493883
0.127177
-6.38091e-05
-0.00491689
0.127554
-0.00129016
-0.00490818
0.127555
-0.00250826
-0.00491279
0.12718
-0.00370906
-0.00492963
0.126431
-0.00488339
-0.0049561
0.125311
-0.00602182
-0.00498838
0.123826
-0.00711515
-0.00502148
0.121982
-0.00815435
-0.00505006
0.11979
-0.00913063
-0.00506913
0.117258
-0.0100344
-0.00507506
0.1144
-0.0108522
-0.00506565
0.111224
-0.0115572
-0.00503824
0.107733
-0.0120744
-0.00498302
0.103894
-0.0121019
-0.00486215
0.0994868
-0.010165
-0.00432949
0.0932657
-0.00286983
0.0803734
0.0100414
-0.00359907
0.0762735
0.0120498
-0.00546576
0.0890276
0.0120391
-0.00619526
0.0954007
0.0115071
-0.00635498
0.0999226
0.010774
-0.00640991
0.103851
0.00992294
-0.00641876
0.107416
0.00898621
-0.006401
0.110656
0.00798178
-0.00636408
0.11357
0.00692259
-0.00631308
0.116148
0.00581948
-0.00625347
0.11838
0.00468189
-0.00619107
0.120257
0.00351815
-0.00613165
0.121769
0.00233556
-0.00608024
0.12291
0.00114053
-0.00604085
0.123674
-6.09464e-05
-0.00601636
0.124057
-0.00126318
-0.00600833
0.124059
-0.00246017
-0.00601707
0.123678
-0.00364549
-0.00604142
0.122916
-0.00481178
-0.00607874
0.121778
-0.00595075
-0.00612469
0.120267
-0.00705279
-0.0061736
0.118391
-0.00810738
-0.00621865
0.116158
-0.00910282
-0.00625295
0.113578
-0.0100258
-0.00627033
0.11066
-0.0108586
-0.0062657
0.107415
-0.01157
-0.00623285
0.103843
-0.0120787
-0.00615562
0.0999079
-0.0120682
-0.00598225
0.0953812
-0.0100463
-0.00526603
0.089009
-0.00345778
0.0762605
0.00987906
-0.00406847
0.0712559
0.0119932
-0.00624488
0.0838122
0.0120312
-0.00717734
0.0903695
0.0115088
-0.00739645
0.0950398
0.010766
-0.00747667
0.0990852
0.00989602
-0.00749388
0.102749
0.00893695
-0.00747513
0.106072
0.00791195
-0.00743253
0.109057
0.00683813
-0.00737421
0.111695
0.0057291
-0.00730754
0.113978
0.00459553
-0.00723937
0.115895
0.00344543
-0.00717571
0.11744
0.00228455
-0.00712152
0.118605
0.00111696
-0.00708058
0.119386
-5.42542e-05
-0.00705568
0.119778
-0.00122645
-0.00704834
0.119779
-0.00239679
-0.00705905
0.119391
-0.00356177
-0.00708682
0.118614
-0.00471651
-0.00712935
0.117451
-0.00585419
-0.00718258
0.115909
-0.00696549
-0.00724085
0.113993
-0.00803824
-0.0072968
0.111711
-0.00905744
-0.00734203
0.109072
-0.010005
-0.00736755
0.106084
-0.0108577
-0.00736441
0.102755
-0.0115779
-0.00732096
0.099084
-0.0120746
-0.00721305
0.0950301
-0.0120125
-0.00697167
0.0903527
-0.00988258
-0.0060424
0.0837937
-0.00391705
0.0712422
0.00966241
-0.00439368
0.065415
0.0119066
-0.00683595
0.0777056
0.01201
-0.00800453
0.0844796
0.0115015
-0.00829871
0.0893292
0.0107478
-0.00841307
0.0935133
0.00985563
-0.00844406
0.0972905
0.00887118
-0.00842853
0.10071
0.00782396
-0.00838532
0.103777
0.00673588
-0.00832628
0.106485
0.00562308
-0.00826031
0.108827
0.00449691
-0.00819452
0.110793
0.00336436
-0.0081342
0.112377
0.00222914
-0.00808345
0.113572
0.00109283
-0.00804538
0.114372
-4.44179e-05
-0.00802224
0.114774
-0.00118276
-0.0080156
0.114776
-0.00232242
-0.0080259
0.114378
-0.00346278
-0.00805267
0.113581
-0.00460191
-0.00809402
0.11239
-0.00573512
-0.00814701
0.11081
-0.00685411
-0.0082068
0.108846
-0.00794582
-0.00826673
0.106507
-0.00899218
-0.00831758
0.103799
-0.00996946
-0.00834815
0.10073
-0.010847
-0.00834448
0.0973057
-0.0115787
-0.00828681
0.0935208
-0.0120596
-0.00814028
0.0893265
-0.0119284
-0.00781426
0.0844671
-0.00966503
-0.00663522
0.0776882
-0.004231
0.0654011
0.00938011
-0.00456454
0.0588481
0.0117808
-0.00721705
0.0707866
0.0119703
-0.00865955
0.0778041
0.0114812
-0.00904513
0.0828647
0.0107152
-0.00920179
0.0872084
0.00979784
-0.0092509
0.0911133
0.00878657
-0.00924267
0.0946403
0.00771828
-0.00920466
0.0977986
0.00661924
-0.00915267
0.100585
0.00550724
-0.00909632
0.102994
0.00439298
-0.00904177
0.105018
0.00328162
-0.00899263
0.106648
0.00217439
-0.00895139
0.107878
0.00107035
-0.00892018
0.108702
-3.24088e-05
-0.00890089
0.109116
-0.00113629
-0.00889483
0.109117
-0.00224362
-0.00890264
0.108707
-0.00335644
-0.00892401
0.107887
-0.00447546
-0.0089579
0.106661
-0.00559906
-0.00900243
0.105035
-0.0067211
-0.00905472
0.103016
-0.00782912
-0.00910998
0.100611
-0.00890293
-0.00915979
0.097827
-0.00991358
-0.00919149
0.0946688
-0.0108218
-0.00918585
0.0911388
-0.0115687
-0.00911282
0.0872265
-0.0120298
-0.00892161
0.0828715
-0.0118082
-0.00849523
0.077798
-0.00938341
-0.00702546
0.0707717
-0.00439186
0.0588348
0.00901744
-0.00458628
0.0516745
0.011599
-0.00736358
0.0631421
0.0118992
-0.00912002
0.0704203
0.011438
-0.00961442
0.0757231
0.0106597
-0.00982093
0.0802474
0.00971618
-0.00989159
0.084293
0.00868005
-0.00989548
0.0879361
0.00759617
-0.00987017
0.0911944
0.00649365
-0.00983471
0.0940687
0.0053901
-0.00979829
0.096554
0.0042936
-0.00976408
0.0986428
0.00320631
-0.00973331
0.100327
0.00212682
-0.00970662
0.101598
0.00105256
-0.00968549
0.10245
-1.95177e-05
-0.00967149
0.102878
-0.00109244
-0.009666
0.102879
-0.00216934
-0.00966967
0.102454
-0.00325359
-0.00968223
0.101606
-0.00434829
-0.00970301
0.100339
-0.00545502
-0.00973117
0.0986595
-0.00657128
-0.00976615
0.0965762
-0.0076877
-0.00980597
0.0940966
-0.00878425
-0.00984547
0.0912272
-0.00982845
-0.00987216
0.087972
-0.0107713
-0.00986272
0.0843286
-0.011537
-0.00977459
0.0802775
-0.0119722
-0.00953531
0.0757416
-0.0116365
-0.00899368
0.0704226
-0.00902349
-0.00719219
0.0631308
-0.00440836
0.0516632
0.00853664
-0.00447377
0.0440395
0.0113205
-0.00724582
0.0548661
0.0117647
-0.00935058
0.0624009
0.0113489
-0.00997605
0.0679795
0.0105625
-0.0102371
0.0727069
0.00959636
-0.0103329
0.0769048
0.00854366
-0.0103561
0.0806719
0.00745667
-0.0103545
0.0840386
0.00636477
-0.0103486
0.0870103
0.00528124
-0.0103433
0.0895827
0.00420972
-0.0103383
0.0917469
0.00314815
-0.0103314
0.0934934
0.00209339
-0.0103227
0.0948127
0.00104234
-0.0103135
0.0956971
-7.17201e-06
-0.0103056
0.096141
-0.00105693
-0.0103007
0.0961419
-0.00210914
-0.0102992
0.0956998
-0.00316658
-0.0103009
0.094818
-0.00423339
-0.0103045
0.0935021
-0.0053138
-0.0103098
0.0917602
-0.00641041
-0.0103173
0.0896019
-0.00751933
-0.0103291
0.0870366
-0.00862538
-0.0103444
0.0840722
-0.00969564
-0.0103553
0.0807119
-0.0106728
-0.0103365
0.0769483
-0.0114575
-0.0102339
0.0727484
-0.011854
-0.00994749
0.0680108
-0.0113732
-0.00927343
0.0624134
-0.00854974
-0.00710885
0.054861
-0.00430255
0.0440331
0.00790346
-0.00424009
0.0360815
0.0108673
-0.00679535
0.0460677
0.0115122
-0.00929756
0.0538066
0.0111664
-0.0100675
0.0596951
0.0103777
-0.0103809
0.0646479
0.00939938
-0.0105097
0.0690073
0.00835079
-0.01057
0.0729075
0.00728717
-0.0106133
0.0763948
0.00623024
-0.0106547
0.0794781
0.00518487
-0.0106937
0.0821515
0.00414733
-0.0107249
0.0844038
0.00311274
-0.0107456
0.0862228
0.00207759
-0.0107563
0.0875976
0.00104093
-0.0107596
0.0885192
3.3065e-06
-0.0107581
0.0889815
-0.00103391
-0.0107537
0.0889816
-0.00206945
-0.010747
0.0885197
-0.00310387
-0.0107367
0.0875991
-0.00413957
-0.0107211
0.0862264
-0.00518189
-0.0106987
0.0844109
-0.00623749
-0.01067
0.0821641
-0.00731088
-0.0106387
0.0794981
-0.00839696
-0.0106096
0.0764237
-0.00947125
-0.0105819
0.0729459
-0.0104731
-0.0105361
0.0690536
-0.0112754
-0.0104132
0.0646969
-0.0116145
-0.010088
0.0597375
-0.010937
-0.00927656
0.0538301
-0.00792925
-0.00670774
0.0460732
-0.00409367
0.0360805
0.00701088
-0.00380248
0.0279238
0.0101898
-0.0060323
0.0368882
0.0110769
-0.00884246
0.0446957
0.0107829
-0.00969823
0.0508909
0.00998628
-0.0100646
0.0560678
0.00902641
-0.0102668
0.0605931
0.00803289
-0.0104123
0.0646436
0.00704467
-0.0105408
0.0682764
0.00606492
-0.010657
0.0714965
0.00508496
-0.010755
0.0742928
0.00409546
-0.0108294
0.0766505
0.00309166
-0.0108808
0.0785553
0.00207347
-0.0109125
0.0799947
0.00104454
-0.0109291
0.0809593
1.05637e-05
-0.0109344
0.0814427
-0.00102204
-0.0109306
0.081442
-0.00204727
-0.0109181
0.0809572
-0.00306033
-0.0108951
0.0799918
-0.00405937
-0.0108584
0.0785526
-0.00504686
-0.0108043
0.0766496
-0.00603018
-0.0107308
0.0742957
-0.00702094
-0.0106389
0.0715054
-0.00802906
-0.0105347
0.0682938
-0.00905094
-0.0104239
0.0646718
-0.010044
-0.0102994
0.0606326
-0.01087
-0.0101152
0.0561154
-0.0111755
-0.00975334
0.0509371
-0.0102684
-0.00887296
0.044727
-0.00704906
-0.00600189
0.036905
-0.00370012
0.0279297
0.00687992
-0.00434558
0.0199298
0.0095649
-0.00413564
0.0273452
0.0102723
-0.00740654
0.0351839
0.00985471
-0.00829345
0.0414504
0.00909281
-0.00882108
0.046748
0.00827203
-0.00921181
0.051442
0.00745527
-0.00952832
0.0556855
0.00663929
-0.00979833
0.0595096
0.00580322
-0.0100218
0.0629065
0.00492949
-0.0101967
0.0658586
0.00401151
-0.0103262
0.0683474
0.00305113
-0.0104169
0.0703569
0.00205709
-0.0104769
0.0718744
0.00104029
-0.010512
0.0728905
1.31624e-05
-0.0105269
0.0733993
-0.00101176
-0.010524
0.0733979
-0.00202208
-0.0105034
0.0728865
-0.00300638
-0.0104629
0.0718681
-0.00395507
-0.0103984
0.0703491
-0.00486199
-0.0103042
0.0683394
-0.00572813
-0.0101734
0.0658519
-0.00656347
-0.0100006
0.0629027
-0.00738878
-0.00978436
0.059511
-0.00822667
-0.00952842
0.0556951
-0.00908141
-0.00923112
0.0514627
-0.00988245
-0.0088641
0.0467795
-0.0103314
-0.00835437
0.0414876
-0.00962815
-0.00746562
0.0352166
-0.00692312
-0.00414877
0.0273686
-0.00429667
0.01994
0.00325735
-0.000318294
0.00973706
0.00539981
-0.00133485
0.0179464
0.00630279
-0.00477841
0.024957
0.00636373
-0.0053186
0.0307499
0.00623664
-0.00591355
0.0359725
0.00600866
-0.00642123
0.0407995
0.0057053
-0.00687457
0.0452369
0.00531051
-0.00725785
0.0492593
0.00480754
-0.00756895
0.0528438
0.00419224
-0.00781236
0.0559654
0.00347553
-0.00799725
0.0585985
0.00267703
-0.00813344
0.0607237
0.00181871
-0.00822939
0.0623278
0.00092219
-0.00828984
0.0634018
8.01081e-06
-0.00831836
0.0639395
-0.000903314
-0.00831699
0.0639383
-0.00179171
-0.00828562
0.063398
-0.00263691
-0.00822232
0.0623217
-0.00341844
-0.00812349
0.0607153
-0.00411543
-0.00798455
0.0585881
-0.0047111
-0.007797
0.0559538
-0.00519808
-0.00755218
0.0528323
-0.00558411
-0.00724244
0.0492491
-0.00589164
-0.00686412
0.0452306
-0.00613982
-0.00642145
0.0408006
-0.00630469
-0.00592944
0.0359832
-0.00628806
-0.00535475
0.0307694
-0.00543574
-0.00481134
0.0249815
-0.00328978
-0.00137675
0.0179717
-0.000312041
0.00974729
-0.000116972
0.00755807
0.00261446
0.00977177
0.00246659
0.0150068
0.0026667
0.0196062
0.00284977
0.0241736
0.00298049
0.0284924
0.00303078
0.0324958
0.00297695
0.0361708
0.00280068
0.0394918
0.00250877
0.0424098
0.00211923
0.0448871
0.00165298
0.0468968
0.00113047
0.0484192
0.000572044
0.0494409
-2.88488e-06
0.0499535
-0.000575582
0.0499527
-0.00112719
0.0494383
-0.00163831
0.0484149
-0.00208858
0.0468907
-0.00245786
0.0448795
-0.00272584
0.0424012
-0.00287638
0.0394829
-0.00290616
0.0361622
-0.00283865
0.0324891
-0.00270408
0.0284883
-0.00253637
0.024173
-0.00237567
0.0196095
-0.00256257
0.0150129
0.000119468
0.00977927
0.00756681
0.000994966
0.000204961
0.00635408
0.00178288
0.000452352
0.00852817
0.0020823
0.0013327
0.0133714
0.00237247
0.00178075
0.0175326
0.00250772
0.00241534
0.0216209
0.00252192
0.00301255
0.0254644
0.00243018
0.00356168
0.0290254
0.00226122
0.00404206
0.0322975
0.00203378
0.00445743
0.0352613
0.00176007
0.00481331
0.0378689
0.00144693
0.00511366
0.0400845
0.00109779
0.00536015
0.041883
0.000717318
0.00555053
0.0432458
0.000312503
0.00568128
0.0441606
-0.000107235
0.00574904
0.0446199
-0.000531132
0.00575204
0.0446198
-0.000948721
0.00569061
0.0441603
-0.00135158
0.00556724
0.0432452
-0.00173405
0.00538576
0.0418819
-0.00209277
0.00514982
0.0400828
-0.00242361
0.0048599
0.0378667
-0.00271682
0.00451229
0.0352586
-0.00295127
0.00409722
0.032294
-0.00309113
0.00360224
0.0290208
-0.00308553
0.00301816
0.0254588
-0.002897
0.00236453
0.0216147
-0.0024889
0.00167058
0.0175263
-0.00201156
0.00116573
0.0133662
-0.00105762
0.000299682
0.00852315
0.000158428
0.006348
0.000723164
0.00083376
0.00837975
0.00220092