/*--------------------------------*- C++ -*----------------------------------*\
| =========                 |                                                 |
| \\      /  F ield         | OpenFOAM: The Open Source CFD Toolbox           |
|  \\    /   O peration     | Version:  2312                                  |
|   \\  /    A nd           | Website:  www.openfoam.com                      |
|    \\/     M anipulation  |                                                 |
\*---------------------------------------------------------------------------*/
FoamFile
{
    version     2.0;
    format      ascii;
    arch        "LSB;label=32;scalar=64";
    class       volScalarField;
    location    "900";
    object      T;
}
// * * * * * * * * * * * * * * * * * * * * * * * * * * * * * * * * * * * * * //

dimensions      [0 0 0 1 0 0 0];

internalField   nonuniform List<scalar> 
27000
(
426.776
355.957
347.32
343.177
342.517
342.642
342.887
343.145
343.395
343.609
343.78
343.913
344.012
344.078
344.112
344.112
344.08
344.014
343.916
343.784
343.613
343.397
343.142
342.876
342.616
342.465
343.085
347.171
355.742
426.372
336.062
354.779
348.618
346.941
346.653
346.878
347.157
347.388
347.57
347.71
347.814
347.89
347.943
347.978
347.996
347.996
347.981
347.947
347.894
347.817
347.709
347.562
347.367
347.115
346.806
346.544
346.795
348.45
354.625
336.086
342.56
345.882
348.414
348.14
347.97
348.004
348.121
348.239
348.336
348.411
348.467
348.507
348.535
348.552
348.561
348.561
348.553
348.535
348.505
348.461
348.398
348.31
348.195
348.055
347.913
347.857
348.02
348.313
345.845
342.574
342.481
346.378
347.981
348.267
348.258
348.263
348.313
348.383
348.451
348.509
348.554
348.588
348.611
348.626
348.633
348.633
348.625
348.608
348.58
348.54
348.485
348.414
348.33
348.244
348.18
348.17
348.189
347.93
346.368
342.496
342.901
346.911
348.123
348.337
348.365
348.367
348.387
348.426
348.472
348.516
348.554
348.584
348.606
348.62
348.626
348.625
348.616
348.599
348.572
348.535
348.487
348.432
348.374
348.326
348.302
348.304
348.29
348.098
346.915
342.92
343.325
347.283
348.261
348.417
348.435
348.431
348.434
348.451
348.478
348.51
348.539
348.564
348.583
348.595
348.601
348.599
348.591
348.574
348.55
348.518
348.48
348.441
348.406
348.385
348.384
348.396
348.393
348.255
347.299
343.346
343.72
347.542
348.352
348.476
348.486
348.474
348.467
348.47
348.483
348.503
348.523
348.542
348.558
348.568
348.572
348.571
348.562
348.548
348.528
348.503
348.476
348.452
348.435
348.432
348.444
348.465
348.469
348.36
347.565
343.742
344.055
347.725
348.411
348.513
348.518
348.503
348.49
348.484
348.487
348.497
348.509
348.522
348.534
348.541
348.544
348.543
348.536
348.524
348.509
348.491
348.475
348.463
348.46
348.468
348.487
348.511
348.518
348.428
347.75
344.076
344.337
347.854
348.447
348.533
348.535
348.52
348.503
348.493
348.489
348.491
348.497
348.505
348.512
348.517
348.519
348.517
348.512
348.504
348.493
348.483
348.475
348.472
348.477
348.492
348.515
348.538
348.545
348.468
347.88
344.355
344.57
347.947
348.467
348.541
348.541
348.526
348.508
348.495
348.487
348.484
348.485
348.488
348.492
348.495
348.496
348.495
348.491
348.486
348.48
348.475
348.474
348.477
348.488
348.506
348.529
348.551
348.557
348.489
347.97
344.585
344.753
348.011
348.476
348.54
348.539
348.524
348.507
348.493
348.482
348.476
348.474
348.474
348.475
348.476
348.476
348.475
348.473
348.471
348.469
348.468
348.471
348.478
348.492
348.51
348.532
348.553
348.559
348.498
348.032
344.765
344.892
348.054
348.478
348.534
348.533
348.518
348.502
348.487
348.476
348.468
348.463
348.461
348.46
348.46
348.459
348.459
348.458
348.457
348.458
348.46
348.466
348.476
348.49
348.509
348.53
348.548
348.553
348.499
348.072
344.902
344.99
348.082
348.476
348.527
348.524
348.51
348.494
348.48
348.468
348.459
348.453
348.45
348.447
348.446
348.445
348.445
348.445
348.446
348.448
348.453
348.461
348.472
348.486
348.504
348.523
348.54
348.545
348.495
348.097
344.998
345.053
348.097
348.473
348.52
348.516
348.502
348.487
348.473
348.461
348.452
348.445
348.44
348.437
348.436
348.435
348.434
348.435
348.437
348.441
348.446
348.455
348.466
348.481
348.498
348.516
348.532
348.537
348.49
348.111
345.06
345.083
348.104
348.469
348.514
348.51
348.496
348.481
348.467
348.455
348.446
348.439
348.434
348.431
348.429
348.427
348.427
348.428
348.431
348.435
348.441
348.449
348.461
348.475
348.492
348.51
348.526
348.531
348.486
348.117
345.09
345.082
348.102
348.467
348.511
348.507
348.493
348.478
348.464
348.452
348.442
348.435
348.43
348.427
348.425
348.424
348.424
348.425
348.427
348.431
348.437
348.445
348.457
348.471
348.488
348.505
348.522
348.527
348.482
348.114
345.089
345.05
348.092
348.465
348.511
348.507
348.492
348.477
348.462
348.45
348.441
348.435
348.43
348.427
348.426
348.425
348.424
348.425
348.426
348.429
348.435
348.442
348.453
348.468
348.485
348.503
348.52
348.526
348.48
348.104
345.057
344.986
348.072
348.464
348.513
348.509
348.494
348.477
348.463
348.451
348.442
348.436
348.433
348.431
348.43
348.429
348.429
348.428
348.429
348.431
348.434
348.441
348.451
348.465
348.482
348.502
348.52
348.526
348.478
348.085
344.992
344.886
348.042
348.461
348.515
348.511
348.496
348.478
348.463
348.452
348.445
348.44
348.439
348.438
348.438
348.438
348.437
348.436
348.435
348.434
348.435
348.44
348.448
348.462
348.48
348.5
348.52
348.527
348.475
348.055
344.893
344.746
347.995
348.455
348.516
348.513
348.496
348.478
348.463
348.453
348.448
348.446
348.447
348.449
348.45
348.451
348.449
348.447
348.443
348.44
348.438
348.439
348.445
348.457
348.474
348.496
348.517
348.524
348.467
348.009
344.754
344.561
347.929
348.442
348.512
348.509
348.492
348.474
348.461
348.453
348.452
348.454
348.458
348.463
348.466
348.467
348.466
348.462
348.456
348.448
348.442
348.438
348.439
348.448
348.463
348.485
348.508
348.516
348.452
347.942
344.57
344.327
347.834
348.419
348.5
348.499
348.482
348.465
348.455
348.452
348.455
348.463
348.472
348.48
348.486
348.488
348.487
348.481
348.471
348.46
348.447
348.437
348.431
348.434
348.446
348.466
348.489
348.497
348.424
347.846
344.337
344.044
347.703
348.379
348.476
348.477
348.462
348.448
348.444
348.448
348.459
348.474
348.489
348.501
348.51
348.513
348.511
348.504
348.492
348.475
348.455
348.437
348.422
348.415
348.42
348.436
348.457
348.464
348.378
347.712
344.054
343.708
347.518
348.317
348.435
348.441
348.43
348.423
348.428
348.444
348.465
348.488
348.509
348.526
348.537
348.542
348.54
348.531
348.516
348.495
348.468
348.439
348.412
348.392
348.384
348.392
348.409
348.411
348.305
347.521
343.718
343.312
347.257
348.221
348.372
348.388
348.384
348.389
348.409
348.44
348.474
348.506
348.533
348.553
348.566
348.572
348.57
348.561
348.544
348.519
348.486
348.446
348.404
348.366
348.34
348.333
348.34
348.333
348.196
347.252
343.318
342.887
346.882
348.079
348.288
348.316
348.32
348.343
348.386
348.436
348.483
348.524
348.556
348.579
348.593
348.6
348.599
348.59
348.572
348.544
348.506
348.458
348.4
348.34
348.288
348.257
348.252
348.23
348.036
346.863
342.888
342.465
346.346
347.933
348.215
348.208
348.217
348.273
348.347
348.42
348.481
348.528
348.563
348.588
348.603
348.61
348.61
348.601
348.584
348.556
348.516
348.461
348.389
348.304
348.215
348.146
348.128
348.136
347.868
346.312
342.459
342.541
345.842
348.359
348.087
347.923
347.965
348.088
348.211
348.312
348.39
348.447
348.488
348.516
348.533
348.542
348.542
348.534
348.516
348.486
348.442
348.379
348.292
348.177
348.037
347.894
347.832
347.984
348.26
345.785
342.529
336.041
354.712
348.561
346.896
346.619
346.853
347.138
347.373
347.556
347.697
347.801
347.877
347.931
347.965
347.983
347.983
347.968
347.934
347.881
347.804
347.697
347.551
347.358
347.108
346.802
346.541
346.788
348.427
354.57
336.028
426.621
355.893
347.28
343.153
342.503
342.633
342.879
343.139
343.389
343.603
343.774
343.907
344.006
344.073
344.106
344.107
344.074
344.009
343.911
343.779
343.608
343.393
343.139
342.874
342.616
342.469
343.092
347.175
355.731
426.276
448.835
364.305
348.367
339.621
336.794
336.033
335.91
336.006
336.189
336.392
336.583
336.742
336.861
336.939
336.977
336.976
336.934
336.853
336.73
336.568
336.377
336.178
336.005
335.931
336.098
336.934
339.87
348.743
364.801
449.721
331.852
361.563
352.855
347.581
344.591
343.527
343.348
343.471
343.672
343.877
344.058
344.204
344.311
344.381
344.415
344.413
344.375
344.301
344.191
344.045
343.869
343.678
343.504
343.43
343.684
344.842
347.912
353.206
361.87
331.805
336.814
343.586
349.612
349.239
347.996
347.184
346.828
346.708
346.686
346.7
346.727
346.755
346.779
346.795
346.802
346.801
346.791
346.774
346.752
346.731
346.72
346.731
346.792
346.966
347.385
348.249
349.501
349.819
343.679
336.823
335.838
341.718
346.363
348.123
348.298
348.074
347.855
347.709
347.617
347.556
347.517
347.492
347.477
347.468
347.465
347.465
347.47
347.481
347.503
347.54
347.599
347.688
347.816
348.002
348.255
348.491
348.29
346.467
341.754
335.829
336.21
342.11
345.898
347.493
348.033
348.131
348.081
347.997
347.917
347.848
347.793
347.751
347.722
347.704
347.697
347.698
347.711
347.735
347.773
347.829
347.903
347.996
348.102
348.207
348.269
348.163
347.591
345.944
342.104
336.181
336.567
342.874
346.149
347.381
347.869
348.049
348.087
348.062
348.014
347.96
347.909
347.867
347.836
347.815
347.806
347.809
347.825
347.853
347.895
347.95
348.017
348.088
348.151
348.184
348.145
347.949
347.43
346.155
342.838
336.527
336.965
343.509
346.43
347.42
347.811
347.983
348.05
348.059
348.038
348.002
347.963
347.927
347.898
347.879
347.87
347.874
347.889
347.917
347.955
348.003
348.054
348.1
348.128
348.119
348.044
347.853
347.434
346.41
343.46
336.918
337.397
344.017
346.651
347.48
347.799
347.947
348.016
348.04
348.036
348.015
347.987
347.959
347.935
347.919
347.912
347.916
347.93
347.954
347.986
348.022
348.057
348.083
348.089
348.06
347.979
347.812
347.469
346.614
343.962
337.352
337.798
344.426
346.828
347.539
347.805
347.93
347.994
348.022
348.027
348.016
347.998
347.978
347.96
347.947
347.942
347.945
347.956
347.976
348
348.026
348.048
348.06
348.052
348.017
347.94
347.798
347.512
346.783
344.374
337.759
338.145
344.754
346.972
347.596
347.822
347.927
347.983
348.01
348.018
348.015
348.004
347.99
347.977
347.967
347.963
347.966
347.975
347.989
348.007
348.024
348.036
348.038
348.025
347.989
347.922
347.802
347.561
346.926
344.707
338.112
338.436
345.014
347.091
347.65
347.845
347.934
347.981
348.004
348.014
348.014
348.007
347.998
347.989
347.983
347.98
347.982
347.988
347.998
348.01
348.02
348.026
348.023
348.008
347.976
347.919
347.818
347.612
347.046
344.973
338.409
338.67
345.214
347.186
347.699
347.871
347.947
347.985
348.005
348.014
348.015
348.012
348.006
348
347.995
347.993
347.995
347.999
348.006
348.013
348.018
348.02
348.014
348
347.972
347.925
347.84
347.66
347.144
345.179
338.648
338.846
345.361
347.258
347.74
347.896
347.961
347.993
348.009
348.017
348.018
348.016
348.013
348.009
348.006
348.004
348.005
348.008
348.012
348.016
348.019
348.018
348.012
347.998
347.975
347.936
347.863
347.702
347.219
345.33
338.827
338.964
345.458
347.309
347.77
347.916
347.975
348.002
348.016
348.022
348.023
348.022
348.02
348.017
348.015
348.014
348.014
348.016
348.018
348.021
348.021
348.019
348.013
348.002
347.982
347.948
347.883
347.733
347.272
345.43
338.947
339.024
345.508
347.336
347.789
347.93
347.986
348.011
348.023
348.028
348.029
348.028
348.026
348.024
348.022
348.021
348.021
348.023
348.025
348.026
348.026
348.024
348.018
348.008
347.99
347.959
347.898
347.753
347.301
345.481
339.008
339.027
345.512
347.341
347.794
347.936
347.992
348.017
348.029
348.034
348.035
348.034
348.032
348.03
348.028
348.027
348.027
348.028
348.03
348.032
348.033
348.031
348.025
348.015
347.998
347.966
347.905
347.76
347.307
345.486
339.01
338.971
345.47
347.324
347.787
347.934
347.994
348.022
348.035
348.041
348.042
348.04
348.037
348.034
348.031
348.03
348.031
348.033
348.036
348.039
348.041
348.04
348.035
348.024
348.005
347.971
347.906
347.755
347.291
345.443
338.954
338.857
345.38
347.284
347.768
347.926
347.993
348.025
348.041
348.048
348.048
348.046
348.041
348.036
348.033
348.031
348.032
348.035
348.04
348.046
348.05
348.051
348.047
348.036
348.014
347.975
347.902
347.738
347.251
345.353
338.84
338.685
345.24
347.22
347.738
347.913
347.99
348.028
348.048
348.056
348.056
348.051
348.044
348.036
348.031
348.029
348.03
348.036
348.043
348.052
348.06
348.064
348.062
348.05
348.025
347.979
347.894
347.712
347.189
345.211
338.666
338.454
345.045
347.134
347.699
347.897
347.988
348.035
348.058
348.066
348.063
348.055
348.044
348.034
348.026
348.023
348.025
348.032
348.044
348.057
348.071
348.08
348.081
348.07
348.041
347.987
347.887
347.679
347.105
345.016
338.434
338.166
344.791
347.023
347.655
347.884
347.991
348.047
348.072
348.078
348.072
348.058
348.042
348.027
348.016
348.011
348.014
348.024
348.04
348.06
348.08
348.097
348.104
348.097
348.066
348.003
347.885
347.643
346.999
344.761
338.143
337.822
344.467
346.886
347.607
347.877
348.003
348.066
348.091
348.093
348.079
348.057
348.034
348.013
347.999
347.993
347.996
348.009
348.03
348.057
348.086
348.113
348.131
348.13
348.102
348.032
347.894
347.608
346.871
344.439
337.798
337.424
344.062
346.718
347.557
347.88
348.028
348.095
348.115
348.105
348.08
348.048
348.017
347.991
347.973
347.965
347.968
347.983
348.009
348.043
348.083
348.123
348.155
348.169
348.15
348.078
347.918
347.578
346.716
344.04
337.4
336.995
343.559
346.505
347.507
347.902
348.071
348.133
348.136
348.109
348.067
348.023
347.983
347.952
347.931
347.922
347.926
347.942
347.97
348.011
348.061
348.116
348.169
348.206
348.208
348.146
347.967
347.555
346.525
343.547
336.974
336.603
342.93
346.233
347.478
347.967
348.141
348.171
348.138
348.082
348.022
347.966
347.921
347.887
347.865
347.856
347.859
347.874
347.903
347.946
348.004
348.073
348.149
348.221
348.266
348.242
348.065
347.559
346.282
342.937
336.593
336.254
342.18
345.994
347.598
348.134
348.222
348.161
348.067
347.978
347.903
347.843
347.799
347.768
347.749
347.741
347.743
347.756
347.78
347.819
347.876
347.951
348.046
348.157
348.272
348.35
348.268
347.721
346.083
342.22
336.26
335.896
341.807
346.471
348.232
348.396
348.157
347.925
347.768
347.667
347.601
347.558
347.531
347.515
347.507
347.503
347.504
347.509
347.52
347.542
347.579
347.638
347.725
347.854
348.043
348.307
348.567
348.402
346.61
341.893
335.929
336.888
343.694
349.73
349.342
348.08
347.249
346.878
346.749
346.721
346.732
346.756
346.784
346.808
346.825
346.833
346.832
346.822
346.805
346.783
346.762
346.748
346.756
346.813
346.981
347.4
348.275
349.562
349.938
343.838
336.951
331.938
361.707
352.964
347.664
344.649
343.564
343.373
343.49
343.688
343.894
344.075
344.222
344.331
344.402
344.436
344.434
344.397
344.323
344.213
344.066
343.887
343.692
343.512
343.429
343.674
344.826
347.905
353.238
362
332
449.173
364.427
348.446
339.669
336.823
336.05
335.92
336.013
336.195
336.399
336.591
336.751
336.871
336.949
336.988
336.986
336.945
336.864
336.741
336.579
336.387
336.186
336.01
335.934
336.094
336.917
339.837
348.704
364.784
449.931
443.934
361.174
345.828
337.113
334.23
333.449
333.331
333.404
333.534
333.659
333.764
333.849
333.914
333.959
333.982
333.983
333.961
333.917
333.852
333.767
333.658
333.526
333.382
333.28
333.346
334.038
336.788
345.345
360.542
442.766
332.497
359.912
351.793
346.023
342.296
340.772
340.474
340.679
341.03
341.378
341.676
341.91
342.082
342.195
342.252
342.252
342.198
342.086
341.913
341.675
341.369
341.002
340.617
340.355
340.569
341.99
345.627
351.364
359.514
332.544
336.207
343.365
349.348
348.725
346.757
345.392
344.929
345.004
345.275
345.567
345.815
346.005
346.14
346.225
346.266
346.265
346.222
346.133
345.993
345.792
345.525
345.205
344.89
344.755
345.145
346.451
348.407
349.086
343.229
336.16
334.098
340.32
345.421
347.67
347.779
347.329
347.064
347.058
347.194
347.369
347.529
347.654
347.743
347.798
347.823
347.821
347.789
347.726
347.627
347.486
347.302
347.093
346.916
346.877
347.101
347.538
347.46
345.281
340.249
334.078
334.103
339.942
344.265
346.764
347.676
347.818
347.792
347.81
347.894
348.007
348.119
348.211
348.278
348.32
348.339
348.334
348.306
348.253
348.172
348.062
347.927
347.785
347.672
347.629
347.642
347.511
346.637
344.196
339.922
334.119
334.299
340.509
344.519
346.727
347.64
347.949
348.046
348.103
348.172
348.254
348.337
348.409
348.464
348.499
348.513
348.508
348.482
348.435
348.365
348.276
348.174
348.071
347.985
347.919
347.826
347.537
346.662
344.504
340.532
334.338
334.487
341.177
345.13
347.015
347.758
348.05
348.172
348.241
348.303
348.367
348.431
348.488
348.532
348.561
348.573
348.567
348.544
348.502
348.445
348.373
348.295
348.219
348.15
348.081
347.97
347.702
346.994
345.149
341.226
334.538
334.665
341.764
345.662
347.306
347.914
348.155
348.264
348.328
348.379
348.43
348.479
348.523
348.558
348.581
348.59
348.585
348.565
348.53
348.484
348.429
348.371
348.314
348.262
348.205
348.111
347.894
347.317
345.702
341.825
334.718
334.84
342.252
346.049
347.524
348.046
348.247
348.338
348.391
348.432
348.47
348.507
348.54
348.567
348.585
348.592
348.587
348.57
348.543
348.508
348.467
348.425
348.386
348.348
348.305
348.23
348.051
347.554
346.1
342.315
334.89
335.005
342.649
346.321
347.671
348.137
348.314
348.394
348.438
348.47
348.498
348.525
348.549
348.569
348.582
348.587
348.583
348.57
348.55
348.524
348.495
348.467
348.44
348.414
348.381
348.317
348.159
347.712
346.377
342.708
335.051
335.151
342.961
346.51
347.765
348.194
348.358
348.432
348.471
348.497
348.518
348.537
348.554
348.568
348.578
348.581
348.578
348.569
348.554
348.536
348.517
348.498
348.48
348.462
348.433
348.374
348.225
347.811
346.565
343.015
335.192
335.273
343.198
346.638
347.821
348.226
348.384
348.455
348.491
348.514
348.53
348.544
348.556
348.566
348.573
348.575
348.573
348.566
348.556
348.544
348.532
348.52
348.508
348.493
348.467
348.408
348.263
347.869
346.691
343.247
335.31
335.366
343.366
346.721
347.853
348.242
348.396
348.466
348.502
348.523
348.536
348.547
348.556
348.563
348.568
348.57
348.568
348.564
348.557
348.549
348.541
348.533
348.524
348.511
348.485
348.425
348.282
347.902
346.772
343.411
335.4
335.427
343.472
346.769
347.869
348.247
348.399
348.47
348.506
348.525
348.538
348.547
348.554
348.56
348.563
348.564
348.563
348.56
348.555
348.55
348.545
348.539
348.532
348.519
348.492
348.431
348.288
347.917
346.818
343.515
335.46
335.457
343.521
346.789
347.873
348.246
348.397
348.468
348.504
348.523
348.535
348.544
348.55
348.555
348.558
348.559
348.559
348.556
348.552
348.548
348.543
348.539
348.532
348.519
348.491
348.429
348.287
347.92
346.837
343.562
335.489
335.453
343.516
346.784
347.867
348.239
348.39
348.461
348.497
348.517
348.529
348.538
348.545
348.55
348.553
348.554
348.554
348.551
348.547
348.542
348.537
348.532
348.525
348.512
348.484
348.421
348.279
347.912
346.83
343.557
335.484
335.417
343.458
346.752
347.85
348.228
348.38
348.45
348.486
348.507
348.52
348.53
348.538
348.544
348.548
348.55
348.549
348.545
348.54
348.534
348.527
348.52
348.512
348.498
348.469
348.407
348.264
347.893
346.797
343.498
335.448
335.348
343.343
346.692
347.822
348.209
348.363
348.434
348.47
348.492
348.507
348.519
348.53
348.538
348.543
348.545
348.544
348.539
348.532
348.522
348.512
348.502
348.491
348.476
348.447
348.385
348.241
347.862
346.735
343.382
335.379
335.248
343.166
346.598
347.778
348.181
348.338
348.41
348.448
348.471
348.49
348.506
348.52
348.532
348.539
348.542
348.54
348.533
348.522
348.508
348.493
348.478
348.463
348.444
348.414
348.352
348.206
347.813
346.639
343.206
335.279
335.121
342.923
346.461
347.71
348.137
348.301
348.375
348.416
348.444
348.468
348.49
348.51
348.526
348.537
348.541
348.538
348.528
348.513
348.492
348.47
348.447
348.425
348.401
348.367
348.303
348.152
347.737
346.497
342.962
335.152
334.97
342.604
346.262
347.605
348.068
348.245
348.325
348.372
348.408
348.44
348.47
348.498
348.52
348.535
348.541
348.538
348.524
348.503
348.475
348.442
348.409
348.376
348.343
348.303
348.232
348.069
347.621
346.292
342.641
335.001
334.8
342.2
345.98
347.446
347.964
348.165
348.259
348.316
348.362
348.405
348.446
348.483
348.513
348.533
348.541
348.537
348.52
348.492
348.454
348.41
348.363
348.317
348.27
348.217
348.132
347.945
347.446
345.998
342.233
334.829
334.62
341.704
345.582
347.214
347.819
348.062
348.176
348.246
348.304
348.36
348.414
348.463
348.501
348.527
348.537
348.533
348.512
348.477
348.429
348.371
348.307
348.244
348.181
348.112
348.004
347.774
347.19
345.582
341.727
334.646
334.436
341.106
345.037
346.908
347.649
347.947
348.077
348.155
348.225
348.296
348.366
348.427
348.475
348.506
348.519
348.514
348.491
348.449
348.39
348.317
348.234
348.151
348.071
347.988
347.859
347.572
346.852
345.012
341.112
334.454
334.237
340.421
344.409
346.603
347.52
347.84
347.949
348.017
348.095
348.186
348.274
348.35
348.408
348.444
348.46
348.456
348.43
348.383
348.314
348.224
348.119
348.011
347.916
347.835
347.719
347.404
346.507
344.348
340.397
334.238
334.024
339.83
344.131
346.626
347.55
347.709
347.7
347.731
347.824
347.945
348.062
348.157
348.226
348.269
348.289
348.285
348.258
348.205
348.125
348.016
347.881
347.738
347.62
347.565
347.557
347.391
346.48
344.021
339.762
333.999
333.995
340.18
345.268
347.527
347.659
347.232
346.986
346.992
347.137
347.318
347.482
347.608
347.698
347.753
347.779
347.776
347.745
347.684
347.586
347.446
347.265
347.059
346.884
346.842
347.054
347.458
347.327
345.099
340.058
333.927
336.078
343.199
349.187
348.596
346.66
345.32
344.874
344.959
345.235
345.529
345.779
345.97
346.104
346.189
346.23
346.229
346.186
346.098
345.959
345.76
345.496
345.181
344.875
344.748
345.141
346.433
348.341
348.941
343.016
335.972
332.338
359.701
351.654
345.925
342.227
340.723
340.439
340.652
341.007
341.357
341.654
341.887
342.059
342.171
342.227
342.227
342.173
342.061
341.889
341.653
341.349
340.986
340.608
340.356
340.583
342.016
345.646
351.332
359.345
332.251
443.45
361.03
345.736
337.055
334.191
333.421
333.31
333.386
333.517
333.641
333.745
333.829
333.894
333.938
333.961
333.961
333.94
333.896
333.832
333.747
333.641
333.51
333.369
333.273
333.35
334.061
336.84
345.414
360.6
442.499
444.601
362.486
347.229
337.85
333.985
332.358
331.66
331.369
331.27
331.248
331.256
331.275
331.295
331.31
331.319
331.321
331.315
331.303
331.287
331.275
331.277
331.314
331.44
331.774
332.539
334.266
338.269
347.798
363.182
445.876
331.042
359.695
352.639
347.014
342.658
340.15
338.942
338.478
338.389
338.465
338.597
338.733
338.848
338.929
338.971
338.972
338.933
338.857
338.748
338.623
338.508
338.46
338.594
339.124
340.417
343.018
347.447
353.092
360.129
330.977
335.444
342.889
349.469
349.34
347.245
345.165
343.801
343.116
342.878
342.878
342.982
343.111
343.227
343.311
343.355
343.357
343.316
343.238
343.13
343.016
342.938
342.975
343.266
344.016
345.447
347.571
349.664
349.733
343.019
335.483
332.791
339.301
344.824
347.71
348.139
347.44
346.623
346.069
345.796
345.708
345.715
345.758
345.806
345.844
345.866
345.87
345.857
345.829
345.794
345.767
345.786
345.912
346.234
346.835
347.686
348.384
347.915
344.959
339.374
332.828
332.287
338.172
342.814
346.006
347.562
347.888
347.687
347.4
347.183
347.055
346.992
346.965
346.958
346.958
346.963
346.969
346.977
346.991
347.015
347.061
347.149
347.307
347.555
347.867
348.073
347.726
346.124
342.882
338.203
332.288
332.205
338.18
342.361
345.328
347.058
347.752
347.893
347.822
347.704
347.602
347.53
347.482
347.454
347.439
347.436
347.443
347.46
347.49
347.535
347.601
347.694
347.816
347.951
348.029
347.877
347.152
345.381
342.375
338.17
332.18
332.244
338.529
342.589
345.343
346.907
347.612
347.871
347.919
347.883
347.824
347.768
347.724
347.693
347.676
347.671
347.678
347.696
347.728
347.773
347.833
347.903
347.974
348.016
347.964
347.687
346.949
345.346
342.562
338.487
332.203
332.338
338.949
343.025
345.614
346.948
347.559
347.828
347.924
347.936
347.913
347.879
347.846
347.821
347.806
347.801
347.807
347.824
347.852
347.889
347.933
347.976
348.004
347.991
347.886
347.597
346.955
345.584
342.973
338.892
332.29
332.463
339.367
343.482
345.91
347.046
347.562
347.805
347.912
347.948
347.948
347.932
347.911
347.894
347.882
347.879
347.884
347.898
347.919
347.946
347.974
347.995
347.996
347.955
347.836
347.573
347.03
345.865
343.417
339.304
332.413
332.597
339.752
343.894
346.161
347.148
347.588
347.8
347.903
347.949
347.962
347.958
347.947
347.936
347.929
347.927
347.931
347.941
347.957
347.974
347.989
347.994
347.979
347.926
347.811
347.581
347.119
346.11
343.826
339.689
332.547
332.722
340.088
344.239
346.362
347.238
347.62
347.806
347.901
347.948
347.967
347.971
347.968
347.962
347.958
347.957
347.96
347.967
347.977
347.987
347.992
347.988
347.964
347.909
347.802
347.601
347.2
346.308
344.174
340.028
332.675
332.831
340.363
344.511
346.517
347.312
347.652
347.816
347.903
347.948
347.971
347.979
347.98
347.978
347.976
347.976
347.978
347.983
347.988
347.993
347.992
347.981
347.954
347.9
347.803
347.624
347.27
346.461
344.449
340.307
332.785
332.918
340.574
344.711
346.631
347.371
347.681
347.829
347.908
347.951
347.974
347.984
347.988
347.988
347.988
347.988
347.99
347.993
347.995
347.996
347.991
347.977
347.949
347.898
347.809
347.648
347.326
346.575
344.652
340.521
332.874
332.98
340.72
344.841
346.706
347.412
347.703
347.841
347.915
347.955
347.978
347.989
347.994
347.996
347.996
347.997
347.998
347.999
348
347.998
347.992
347.977
347.949
347.9
347.817
347.668
347.366
346.651
344.784
340.668
332.937
333.014
340.796
344.907
346.745
347.435
347.717
347.85
347.921
347.96
347.982
347.993
347.999
348.001
348.002
348.003
348.004
348.004
348.004
348.001
347.994
347.979
347.951
347.905
347.825
347.682
347.39
346.691
344.851
340.745
332.971
333.018
340.8
344.912
346.75
347.441
347.723
347.856
347.926
347.965
347.987
347.998
348.003
348.005
348.006
348.007
348.007
348.008
348.008
348.005
347.998
347.984
347.957
347.91
347.831
347.689
347.397
346.698
344.858
340.751
332.976
332.992
340.734
344.856
346.722
347.428
347.72
347.857
347.93
347.97
347.992
348.002
348.007
348.008
348.008
348.008
348.009
348.011
348.012
348.01
348.005
347.991
347.964
347.917
347.836
347.688
347.387
346.672
344.803
340.685
332.951
332.938
340.598
344.736
346.657
347.398
347.708
347.856
347.934
347.976
347.997
348.007
348.009
348.009
348.007
348.007
348.009
348.011
348.014
348.016
348.012
348.001
347.975
347.927
347.84
347.682
347.361
346.611
344.684
340.55
332.897
332.859
340.395
344.546
346.554
347.351
347.691
347.854
347.939
347.983
348.003
348.01
348.009
348.006
348.003
348.002
348.004
348.008
348.014
348.02
348.021
348.013
347.989
347.94
347.846
347.672
347.32
346.512
344.497
340.349
332.82
332.757
340.128
344.282
346.409
347.287
347.67
347.854
347.947
347.992
348.008
348.01
348.004
347.997
347.991
347.989
347.991
347.999
348.009
348.02
348.028
348.027
348.008
347.958
347.857
347.662
347.266
346.375
344.236
340.084
332.72
332.638
339.8
343.945
346.219
347.209
347.649
347.859
347.959
348.001
348.011
348.004
347.99
347.977
347.968
347.964
347.968
347.978
347.994
348.012
348.03
348.039
348.03
347.985
347.877
347.656
347.201
346.194
343.905
339.76
332.604
332.511
339.422
343.542
345.979
347.119
347.635
347.875
347.978
348.009
348.004
347.984
347.96
347.94
347.926
347.921
347.925
347.938
347.96
347.988
348.019
348.044
348.051
348.019
347.912
347.661
347.129
345.968
343.514
339.39
332.482
332.392
339.014
343.098
345.695
347.034
347.644
347.908
347.998
348.004
347.975
347.936
347.899
347.871
347.853
347.847
347.851
347.868
347.895
347.933
347.979
348.026
348.062
348.059
347.968
347.696
347.069
345.707
343.091
338.996
332.371
332.308
338.608
342.679
345.442
347.009
347.709
347.96
347.999
347.955
347.889
347.828
347.779
347.746
347.726
347.719
347.724
347.742
347.773
347.818
347.878
347.951
348.028
348.081
348.046
347.791
347.076
345.488
342.701
338.612
332.301
332.283
338.281
342.475
345.448
347.175
347.859
347.987
347.904
347.777
347.667
347.589
347.538
347.507
347.49
347.486
347.491
347.507
347.535
347.578
347.643
347.737
347.863
348.006
348.102
347.976
347.283
345.537
342.537
338.319
332.296
332.383
338.299
342.954
346.145
347.69
347.998
347.78
347.478
347.25
347.115
347.047
347.018
347.009
347.008
347.011
347.016
347.023
347.034
347.056
347.099
347.184
347.341
347.594
347.918
348.151
347.843
346.282
343.064
338.378
332.426
332.914
339.455
344.985
347.859
348.264
347.542
346.704
346.135
345.85
345.755
345.76
345.803
345.851
345.889
345.91
345.913
345.899
345.869
345.829
345.798
345.812
345.934
346.252
346.856
347.725
348.462
348.05
345.147
339.577
332.996
335.587
343.069
349.643
349.48
347.355
345.251
343.867
343.169
342.922
342.917
343.017
343.146
343.262
343.346
343.39
343.392
343.351
343.271
343.161
343.044
342.96
342.99
343.272
344.014
345.445
347.588
349.733
349.885
343.243
335.686
331.223
359.935
352.795
347.13
342.746
340.219
338.997
338.523
338.427
338.5
338.631
338.767
338.881
338.962
339.005
339.006
338.966
338.889
338.779
338.652
338.533
338.479
338.604
339.12
340.397
342.987
347.427
353.13
360.311
331.287
445.16
362.653
347.345
337.933
334.048
332.41
331.703
331.407
331.305
331.282
331.289
331.308
331.328
331.343
331.353
331.354
331.347
331.335
331.319
331.305
331.306
331.34
331.46
331.783
332.53
334.231
338.205
347.719
363.125
446.172
436.682
358.386
344.351
335.982
332.792
331.534
331.026
330.833
330.784
330.789
330.81
330.835
330.857
330.871
330.877
330.872
330.858
330.835
330.804
330.768
330.734
330.715
330.745
330.912
331.383
332.57
335.642
343.861
357.741
435.544
331.235
356.767
349.957
344.765
340.944
338.851
337.896
337.562
337.532
337.63
337.764
337.893
337.998
338.07
338.104
338.099
338.055
337.973
337.857
337.716
337.566
337.448
337.447
337.735
338.629
340.646
344.395
349.561
356.391
331.333
335.174
342
347.758
347.469
345.551
343.715
342.538
341.975
341.815
341.865
341.999
342.146
342.272
342.36
342.402
342.397
342.344
342.245
342.107
341.946
341.793
341.716
341.838
342.352
343.478
345.273
347.188
347.531
341.899
335.147
332.332
338.686