/*--------------------------------*- C++ -*----------------------------------*\
| =========                 |                                                 |
| \\      /  F ield         | OpenFOAM: The Open Source CFD Toolbox           |
|  \\    /   O peration     | Version:  2312                                  |
|   \\  /    A nd           | Website:  www.openfoam.com                      |
|    \\/     M anipulation  |                                                 |
\*---------------------------------------------------------------------------*/
FoamFile
{
    version     2.0;
    format      ascii;
    arch        "LSB;label=32;scalar=64";
    class       volVectorField;
    location    "900";
    object      U;
}
// * * * * * * * * * * * * * * * * * * * * * * * * * * * * * * * * * * * * * //

dimensions      [0 1 -1 0 0 0 0];

internalField   nonuniform List<vector> 
27000
(
(-7.48292e-05 0.000116673 0.107447)
(-0.000222166 0.000231415 0.07639)
(-0.000125453 0.000239249 0.0818763)
(-9.44827e-05 0.000214115 0.0835486)
(-6.04222e-05 0.000205581 0.0854657)
(-3.83896e-05 0.000202939 0.0869556)
(-2.12586e-05 0.000202964 0.0880633)
(-8.20821e-06 0.000203966 0.0889459)
(9.60606e-07 0.000205528 0.0896806)
(6.46012e-06 0.000207298 0.090265)
(8.98312e-06 0.000209014 0.0907152)
(9.26173e-06 0.000210561 0.0910547)
(7.92131e-06 0.000211888 0.0913023)
(5.54764e-06 0.000212806 0.0914659)
(2.60113e-06 0.00021328 0.0915483)
(-4.80682e-07 0.000213264 0.0915515)
(-3.27161e-06 0.000212781 0.0914754)
(-5.3433e-06 0.000211857 0.0913186)
(-6.18245e-06 0.000210575 0.0910782)
(-5.21671e-06 0.000209131 0.0907459)
(-1.77206e-06 0.000207586 0.0903016)
(4.87945e-06 0.000206082 0.0897216)
(1.54583e-05 0.000205025 0.0889891)
(3.00352e-05 0.000204822 0.0881054)
(4.87323e-05 0.000205913 0.0869919)
(7.15659e-05 0.000209744 0.0854895)
(0.000107525 0.000220224 0.0835508)
(0.000136504 0.000247159 0.0818449)
(0.000233339 0.000238116 0.0763175)
(8.40843e-05 0.000125567 0.107295)
(0.000300873 -0.000135723 0.0626546)
(0.000115865 -4.11946e-05 0.0835675)
(7.95981e-05 0.000168169 0.0915955)
(3.93036e-05 0.000222764 0.0944231)
(3.1376e-05 0.000246061 0.0958482)
(3.28292e-05 0.000259639 0.0968435)
(3.49894e-05 0.000270088 0.0975668)
(3.66684e-05 0.000278812 0.0981041)
(3.6983e-05 0.000286005 0.0985123)
(3.54887e-05 0.000291781 0.0988196)
(3.21106e-05 0.000296316 0.0990462)
(2.71014e-05 0.000299736 0.0992102)
(2.08777e-05 0.000302185 0.0993256)
(1.38109e-05 0.000303768 0.0994007)
(6.31006e-06 0.000304539 0.0994399)
(-1.27997e-06 0.000304575 0.0994451)
(-8.60918e-06 0.000303855 0.099416)
(-1.53046e-05 0.00030237 0.0993505)
(-2.10068e-05 0.000300058 0.0992438)
(-2.53211e-05 0.000296851 0.0990865)
(-2.78848e-05 0.00029265 0.0988634)
(-2.85038e-05 0.00028739 0.0985544)
(-2.73492e-05 0.000280982 0.0981374)
(-2.49546e-05 0.000273406 0.0975814)
(-2.23847e-05 0.000264461 0.0968277)
(-2.1101e-05 0.000252307 0.0957901)
(-3.01877e-05 0.000230364 0.0943167)
(-7.21789e-05 0.000175526 0.0914493)
(-0.000112383 -3.57162e-05 0.0834216)
(-0.000306246 -0.000140402 0.0625989)
(9.86622e-05 0.000137781 0.0806161)
(0.000118515 0.00016768 0.0899018)
(0.000149127 0.000227584 0.0966983)
(0.000132418 0.000260847 0.0983885)
(0.000111247 0.000279608 0.098992)
(9.52621e-05 0.000291074 0.0993726)
(8.27587e-05 0.000299217 0.0996799)
(7.24713e-05 0.000305655 0.0999287)
(6.35372e-05 0.00031087 0.100125)
(5.5064e-05 0.000314991 0.100276)
(4.64809e-05 0.000318078 0.100388)
(3.75276e-05 0.000320317 0.100469)
(2.81468e-05 0.000321827 0.100526)
(1.84507e-05 0.000322758 0.100563)
(8.55956e-06 0.000323221 0.100583)
(-1.34674e-06 0.000323243 0.100587)
(-1.10934e-05 0.000322873 0.100575)
(-2.0533e-05 0.000322044 0.100545)
(-2.95355e-05 0.000320702 0.100493)
(-3.80732e-05 0.000318742 0.100412)
(-4.62523e-05 0.000316052 0.100294)
(-5.44349e-05 0.000312558 0.10013)
(-6.32932e-05 0.000308247 0.0999113)
(-7.38103e-05 0.000302962 0.0996295)
(-8.69542e-05 0.000296121 0.0992796)
(-0.000104089 0.000285764 0.0988522)
(-0.000127016 0.000267393 0.0982099)
(-0.00014633 0.000232947 0.0965135)
(-0.000119274 0.000168694 0.0897778)
(-0.000101557 0.000135331 0.0805734)
(0.00014072 6.09665e-05 0.0840124)
(0.000148337 0.000151221 0.0939727)
(0.000172285 0.000231635 0.0981322)
(0.000162043 0.000258761 0.0992033)
(0.000145114 0.000273307 0.0995779)
(0.000126569 0.000282109 0.0998025)
(0.000109031 0.000288104 0.099996)
(9.33285e-05 0.000292722 0.100171)
(7.93925e-05 0.000296454 0.100323)
(6.6762e-05 0.000299414 0.100447)
(5.49285e-05 0.000301647 0.100544)
(4.34782e-05 0.000303199 0.100616)
(3.21869e-05 0.000304219 0.100668)
(2.09308e-05 0.000304823 0.100701)
(9.68316e-06 0.000305109 0.100718)
(-1.53696e-06 0.000305165 0.100721)
(-1.27094e-05 0.000304974 0.100708)
(-2.38308e-05 0.000304531 0.100676)
(-3.49719e-05 0.000303744 0.100624)
(-4.6296e-05 0.000302534 0.100545)
(-5.81313e-05 0.000300824 0.100435)
(-7.09459e-05 0.00029859 0.100291)
(-8.53357e-05 0.000295793 0.100111)
(-0.000101785 0.000292271 0.0999008)
(-0.000120413 0.000287295 0.0996698)
(-0.000140347 0.000279139 0.0994132)
(-0.000158952 0.000264318 0.099024)
(-0.000171261 0.000235287 0.097973)
(-0.000150362 0.000150669 0.093887)
(-0.000145067 5.55704e-05 0.0840001)
(0.000136652 9.07934e-05 0.0865746)
(0.000168929 0.000160156 0.0960188)
(0.000192679 0.000223602 0.0989255)
(0.000181705 0.000247552 0.0995507)
(0.000165401 0.000259816 0.0997723)
(0.000146593 0.000266816 0.0999133)
(0.000127391 0.000271173 0.100045)
(0.000109142 0.000274213 0.100178)
(9.23322e-05 0.000276502 0.100305)
(7.6896e-05 0.000278255 0.100417)
(6.25403e-05 0.000279522 0.100511)
(4.89711e-05 0.000280364 0.100584)
(3.58923e-05 0.000280871 0.100637)
(2.30995e-05 0.000281141 0.100672)
(1.04601e-05 0.000281281 0.10069)
(-2.13389e-06 0.000281337 0.10069)
(-1.47664e-05 0.000281344 0.100673)
(-2.75537e-05 0.00028126 0.100635)
(-4.06717e-05 0.000281042 0.100576)
(-5.4382e-05 0.000280614 0.100492)
(-6.90171e-05 0.000279926 0.100382)
(-8.4952e-05 0.000278934 0.100247)
(-0.000102472 0.000277541 0.100093)
(-0.000121657 0.000275422 0.0999306)
(-0.000141966 0.000271792 0.0997732)
(-0.000161978 0.000265049 0.0996179)
(-0.000179567 0.000252127 0.0994016)
(-0.000191964 0.000226127 0.0988107)
(-0.000170324 0.000158942 0.095974)
(-0.000139112 8.64782e-05 0.0865846)
(0.000142645 9.26807e-05 0.0884167)
(0.000185329 0.000164116 0.0972281)
(0.000208462 0.000214009 0.0993993)
(0.000197075 0.000232138 0.0997912)
(0.000180581 0.000241849 0.0999055)
(0.000161553 0.000247314 0.0999803)
(0.000141657 0.0002505 0.100063)
(0.000122146 0.000252415 0.100159)
(0.000103607 0.000253605 0.10026)
(8.62105e-05 0.000254327 0.100358)
(6.98908e-05 0.000254723 0.100446)
(5.4438e-05 0.000254887 0.100517)
(3.96267e-05 0.000254898 0.100571)
(2.52329e-05 0.000254859 0.100607)
(1.10583e-05 0.000254846 0.100624)
(-3.05459e-06 0.00025492 0.100623)
(-1.72725e-05 0.000255099 0.100602)
(-3.17767e-05 0.000255368 0.10056)
(-4.67819e-05 0.000255681 0.100497)
(-6.2547e-05 0.000255977 0.100412)
(-7.93421e-05 0.000256184 0.100307)
(-9.73708e-05 0.000256196 0.100188)
(-0.000116698 0.000255812 0.100064)
(-0.000137109 0.000254615 0.099948)
(-0.000157939 0.000251904 0.099853)
(-0.000177899 0.000246388 0.0997784)
(-0.000195217 0.000235893 0.099682)
(-0.000207539 0.000215868 0.0993293)
(-0.000185818 0.000163023 0.0972175)
(-0.00014381 8.93603e-05 0.0884397)
(0.000148852 9.37493e-05 0.0897895)
(0.000200105 0.000159843 0.0979918)
(0.000221832 0.000199939 0.0996992)
(0.000209956 0.000213926 0.0999664)
(0.000193109 0.000221328 0.100018)
(0.000173829 0.000225464 0.100045)
(0.000153582 0.000227701 0.100088)
(0.000133354 0.000228788 0.10015)
(0.000113721 0.00022915 0.100226)
(9.49273e-05 0.000229078 0.100307)
(7.70112e-05 0.000228756 0.100384)
(5.98956e-05 0.000228323 0.10045)
(4.34073e-05 0.000227894 0.100502)
(2.73526e-05 0.000227564 0.100536)
(1.154e-05 0.000227415 0.100553)
(-4.22506e-06 0.000227505 0.10055)
(-2.01276e-05 0.00022785 0.100527)
(-3.63645e-05 0.000228444 0.100484)
(-5.31479e-05 0.000229233 0.100421)
(-7.06849e-05 0.000230146 0.100341)
(-8.91462e-05 0.000231065 0.100248)
(-0.000108604 0.000231822 0.10015)
(-0.000128975 0.000232135 0.100059)
(-0.000149959 0.000231603 0.0999855)
(-0.000170927 0.000229623 0.099941)
(-0.000190811 0.000225307 0.0999233)
(-0.000208199 0.000217111 0.0998957)
(-0.000220591 0.000201596 0.0996657)
(-0.000199796 0.000159306 0.0980037)
(-0.000149008 9.18607e-05 0.0898181)
(0.000155427 9.15156e-05 0.0908168)
(0.000213332 0.000151262 0.0984942)
(0.000233429 0.000183035 0.0998922)
(0.000221066 0.000193732 0.100089)
(0.000203801 0.000199263 0.100107)
(0.000184308 0.000202252 0.100106)
(0.000163811 0.000203692 0.10012)
(0.000143147 0.000204107 0.100155)
(0.000122771 0.000203842 0.100208)
(0.000102933 0.000203154 0.100271)
(8.37335e-05 0.000202268 0.100335)
(6.51494e-05 0.000201354 0.100393)
(4.70859e-05 0.000200553 0.100439)
(2.93938e-05 0.000199978 0.100471)
(1.19056e-05 0.000199717 0.100486)
(-5.54948e-06 0.000199823 0.100482)
(-2.31491e-05 0.000200322 0.100459)
(-4.1069e-05 0.000201191 0.100418)
(-5.94746e-05 0.000202379 0.10036)
(-7.85088e-05 0.000203776 0.10029)
(-9.82573e-05 0.000205237 0.100212)
(-0.000118704 0.000206534 0.100137)
(-0.000139704 0.000207369 0.100075)
(-0.000160954 0.000207365 0.100037)
(-0.000181945 0.000206069 0.100028)
(-0.000201825 0.000202857 0.100044)
(-0.000219363 0.000196661 0.10005)
(-0.000232025 0.000184822 0.0998844)
(-0.000212535 0.000151538 0.0985182)
(-0.000154995 9.09385e-05 0.0908456)
(0.000162606 8.61972e-05 0.0916088)
(0.000225328 0.00013896 0.0988352)
(0.000243729 0.000164064 0.100015)
(0.000230756 0.00017209 0.100171)
(0.000213056 0.000176092 0.100173)
(0.000193313 0.000178079 0.100157)
(0.00017263 0.000178822 0.100153)
(0.00015165 0.00017869 0.100169)
(0.000130738 0.000177935 0.100203)
(0.000110105 0.000176802 0.100249)
(8.98519e-05 0.000175506 0.100299)
(7.00006e-05 0.00017424 0.100348)
(5.05009e-05 0.000173167 0.100388)
(3.12611e-05 0.00017241 0.100415)
(1.216e-05 0.000172068 0.100428)
(-6.93491e-06 0.000172196 0.100423)
(-2.61569e-05 0.000172813 0.100402)
(-4.56325e-05 0.000173896 0.100365)
(-6.54747e-05 0.000175373 0.100315)
(-8.57594e-05 0.000177119 0.100256)
(-0.000106503 0.000178953 0.100196)
(-0.000127651 0.000180633 0.100142)
(-0.00014905 0.000181865 0.100104)
(-0.00017045 0.000182327 0.10009)
(-0.00019145 0.000181679 0.100103)
(-0.000211393 0.000179506 0.100136)
(-0.000229224 0.000175017 0.100155)
(-0.000242334 0.000166183 0.100024)
(-0.000224328 0.000140079 0.0988639)
(-0.000161879 8.66665e-05 0.0916341)
(0.000169625 7.80252e-05 0.0922245)
(0.000236032 0.000123559 0.099072)
(0.000252839 0.000143247 0.100092)
(0.000239223 0.000149173 0.100221)
(0.000221052 0.000151915 0.100216)
(0.000201039 0.000153072 0.100193)
(0.000180174 0.000153231 0.10018)
(0.000158945 0.000152655 0.100183)
(0.00013762 0.00015155 0.100204)
(0.000116355 0.000150117 0.100236)
(9.52357e-05 0.000148562 0.100275)
(7.42984e-05 0.000147082 0.100313)
(5.35312e-05 0.000145842 0.100346)
(3.28878e-05 0.000144983 0.100369)
(1.23042e-05 0.000144597 0.100379)
(-8.29808e-06 0.000144746 0.100375)
(-2.89958e-05 0.000145445 0.100357)
(-4.98605e-05 0.000146662 0.100325)
(-7.09394e-05 0.000148316 0.100283)
(-9.22528e-05 0.000150269 0.100237)
(-0.000113781 0.00015233 0.100192)
(-0.000135448 0.000154257 0.100155)
(-0.000157128 0.000155786 0.100135)
(-0.000178632 0.000156646 0.100137)
(-0.000199674 0.00015659 0.100161)
(-0.000219765 0.000155325 0.100198)
(-0.000237956 0.000152261 0.100221)
(-0.00025161 0.000145812 0.10011)
(-0.000235049 0.000125421 0.0991009)
(-0.000168834 7.92779e-05 0.0922455)
(0.000175986 6.75614e-05 0.0926917)
(0.000245279 0.000105598 0.0992358)
(0.000260701 0.000120806 0.100138)
(0.000246476 0.000125049 0.100247)
(0.000227864 0.000126787 0.10024)
(0.000207592 0.000127285 0.100216)
(0.000186545 0.000126982 0.100198)
(0.000165098 0.000126083 0.100195)
(0.000143433 0.000124748 0.100206)
(0.00012165 0.000123151 0.100229)
(9.98156e-05 0.000121479 0.100258)
(7.79609e-05 0.000119914 0.100287)
(5.6102e-05 0.00011862 0.100314)
(3.42379e-05 0.000117731 0.100332)
(1.23516e-05 0.000117343 0.10034)
(-9.57445e-06 0.000117511 0.100336)
(-3.1561e-05 0.00011825 0.100321)
(-5.36149e-05 0.000119522 0.100295)
(-7.57339e-05 0.000121243 0.100262)
(-9.78934e-05 0.000123273 0.100226)
(-0.000120044 0.000125428 0.100194)
(-0.000142116 0.000127486 0.100171)
(-0.000164016 0.000129214 0.100162)
(-0.000185621 0.000130394 0.100172)
(-0.000206736 0.000130831 0.100199)
(-0.000226997 0.000130315 0.100236)
(-0.00024555 0.000128402 0.100257)
(-0.000259739 0.000123821 0.10016)
(-0.000244439 0.000108077 0.099263)
(-0.000175268 6.93482e-05 0.0927092)
(0.000181401 5.52739e-05 0.093036)
(0.000252928 8.55735e-05 0.0993465)
(0.000267244 9.69451e-05 0.100163)
(0.000252494 9.98436e-05 0.100258)
(0.000233506 0.000100794 0.10025)
(0.000213 0.000100782 0.100226)
(0.000191787 0.000100141 0.100209)
(0.000170147 9.90314e-05 0.100202)
(0.000148195 9.75845e-05 0.100208)
(0.000125988 9.59483e-05 0.100223)
(0.000103561 9.42831e-05 0.100245)
(8.09484e-05 9.27507e-05 0.100268)
(5.81833e-05 9.15005e-05 0.100288)
(3.52954e-05 9.06527e-05 0.100303)
(1.23183e-05 9.0297e-05 0.100309)
(-1.07184e-05 9.04835e-05 0.100306)
(-3.37764e-05 9.12213e-05 0.100293)
(-5.68155e-05 9.2476e-05 0.100273)
(-7.97838e-05 9.41637e-05 0.100247)
(-0.000102623 9.61592e-05 0.10022)
(-0.000125274 9.82931e-05 0.100197)
(-0.000147672 0.000100375 0.100183)
(-0.000169756 0.000102207 0.100181)
(-0.000191457 0.000103612 0.100195)
(-0.000212655 0.000104436 0.100222)
(-0.000233077 0.000104509 0.100256)
(-0.000251943 0.000103495 0.100274)
(-0.000266591 0.000100377 0.100186)
(-0.000252301 8.85299e-05 0.0993715)
(-0.000180817 5.74112e-05 0.0930508)
(0.00018568 4.15997e-05 0.0932773)
(0.000258874 6.39423e-05 0.0994179)
(0.000272378 7.19069e-05 0.100174)
(0.000257231 7.36984e-05 0.100259)
(0.000237951 7.40338e-05 0.100251)
(0.000217259 7.36448e-05 0.100229)
(0.000195903 7.27809e-05 0.100212)
(0.000174098 7.15681e-05 0.100204)
(0.00015191 7.01177e-05 0.100206)
(0.000129356 6.85506e-05 0.100217)
(0.000106458 6.69995e-05 0.100234)
(8.32437e-05 6.56009e-05 0.100252)
(5.97583e-05 6.44762e-05 0.100268)
(3.60612e-05 6.37302e-05 0.10028)
(1.22181e-05 6.34365e-05 0.100285)
(-1.16951e-05 6.36375e-05 0.100282)
(-3.55992e-05 6.43407e-05 0.100272)
(-5.94092e-05 6.55127e-05 0.100255)
(-8.30404e-05 6.70856e-05 0.100236)
(-0.000106412 6.89484e-05 0.100216)
(-0.000129452 7.0964e-05 0.100199)
(-0.000152109 7.29738e-05 0.10019)
(-0.000174347 7.48192e-05 0.100192)
(-0.000196135 7.63532e-05 0.100207)
(-0.000217407 7.74498e-05 0.100232)
(-0.000237955 7.79692e-05 0.100263)
(-0.000257057 7.7647e-05 0.100279)
(-0.000272046 7.57042e-05 0.100198)
(-0.000258485 6.72661e-05 0.0994411)
(-0.000185252 4.39671e-05 0.0932904)
(0.000188694 2.69397e-05 0.0934301)
(0.000263033 4.1144e-05 0.0994594)
(0.000276029 4.59752e-05 0.100176)
(0.000260624 4.68181e-05 0.100256)
(0.000241153 4.66619e-05 0.100247)
(0.000220331 4.59983e-05 0.100226)
(0.000198867 4.50044e-05 0.100209)
(0.000176931 4.37807e-05 0.100201)
(0.000154557 4.24162e-05 0.100203)
(0.000131742 4.10079e-05 0.100211)
(0.000108491 3.9659e-05 0.100224)
(8.48321e-05 3.84712e-05 0.100239)
(6.08211e-05 3.75394e-05 0.100252)
(3.65337e-05 3.69402e-05 0.100262)
(1.2064e-05 3.67308e-05 0.100266)
(-1.24833e-05 3.69433e-05 0.100264)
(-3.69966e-05 3.75817e-05 0.100255)
(-6.13626e-05 3.86228e-05 0.100242)
(-8.54715e-05 4.00113e-05 0.100226)
(-0.000109227 4.16666e-05 0.10021)
(-0.000132553 4.34825e-05 0.100198)
(-0.000155404 4.53403e-05 0.100192)
(-0.00017776 4.71162e-05 0.100196)
(-0.000199616 4.86944e-05 0.10021)
(-0.00022094 4.99672e-05 0.100234)
(-0.000241569 5.08186e-05 0.100262)
(-0.000260814 5.1045e-05 0.100277)
(-0.00027601 5.00878e-05 0.100201)
(-0.000262889 4.47594e-05 0.0994816)
(-0.00018842 2.94637e-05 0.0934422)
(0.000190357 1.16687e-05 0.0935034)
(0.000265347 1.76113e-05 0.099477)
(0.000278134 1.94563e-05 0.100174)
(0.000262617 1.94449e-05 0.10025)
(0.000243057 1.88711e-05 0.100241)
(0.000222165 1.80002e-05 0.10022)
(0.000200632 1.69428e-05 0.100204)
(0.000178606 1.57732e-05 0.100196)
(0.000156105 1.45613e-05 0.100196)
(0.000133115 1.33775e-05 0.100203)
(0.000109636 1.22921e-05 0.100215)
(8.56982e-05 1.13724e-05 0.100228)
(6.13609e-05 1.06776e-05 0.10024)
(3.6713e-05 1.02572e-05 0.100249)
(1.1863e-05 1.01466e-05 0.100253)
(-1.30672e-05 1.03661e-05 0.100251)
(-3.79477e-05 1.09191e-05 0.100243)
(-6.26484e-05 1.17906e-05 0.100231)
(-8.70474e-05 1.29475e-05 0.100217)
(-0.000111039 1.43377e-05 0.100204)
(-0.000134543 1.58947e-05 0.100193)
(-0.000157518 1.75383e-05 0.100189)
(-0.00017995 1.91833e-05 0.100194)
(-0.00020185 2.07411e-05 0.100208)
(-0.0002232 2.21232e-05 0.100231)
(-0.000243858 2.32325e-05 0.100258)
(-0.000263155 2.3923e-05 0.100272)
(-0.000278421 2.38463e-05 0.100199)
(-0.000265448 2.14723e-05 0.0994988)
(-0.000190237 1.43181e-05 0.0935153)
(0.000190619 -3.84589e-06 0.0935018)
(0.000265769 -6.22806e-06 0.0994735)
(0.000278646 -7.32399e-06 0.10017)
(0.000263165 -8.16e-06 0.100245)
(0.000243614 -9.12096e-06 0.100235)
(0.000222715 -1.01684e-05 0.100213)
(0.000201155 -1.12567e-05 0.100197)
(0.000179084 -1.23358e-05 0.100188)
(0.000156518 -1.33579e-05 0.100188)
(0.000133447 -1.42805e-05 0.100195)
(0.000109871 -1.50671e-05 0.100207)
(8.58234e-05 -1.56891e-05 0.10022)
(6.13674e-05 -1.61218e-05 0.100232)
(3.65948e-05 -1.63481e-05 0.100241)
(1.1618e-05 -1.6354e-05 0.100245)
(-1.34364e-05 -1.61312e-05 0.100243)
(-3.84355e-05 -1.5678e-05 0.100235)
(-6.3246e-05 -1.4998e-05 0.100223)
(-8.77424e-05 -1.41031e-05 0.100209)
(-0.000111817 -1.30116e-05 0.100196)
(-0.000135389 -1.17512e-05 0.100185)
(-0.000158414 -1.03587e-05 0.100181)
(-0.000180879 -8.88176e-06 0.100186)
(-0.000202794 -7.37977e-06 0.1002)
(-0.000224142 -5.92116e-06 0.100224)
(-0.00024478 -4.58423e-06 0.100252)
(-0.000264039 -3.4587e-06 0.100267)
(-0.000279235 -2.68354e-06 0.100194)
(-0.00026612 -2.14006e-06 0.0994956)
(-0.000190652 -1.07269e-06 0.0935141)
(0.000189468 -1.92393e-05 0.0934253)
(0.000264282 -2.9943e-05 0.0994491)
(0.000277543 -3.40366e-05 0.100162)
(0.000262242 -3.57223e-05 0.100239)
(0.000242801 -3.70878e-05 0.100228)
(0.000221952 -3.83183e-05 0.100205)
(0.000200407 -3.94374e-05 0.100187)
(0.000178335 -4.04229e-05 0.100178)
(0.000155769 -4.12492e-05 0.100179)
(0.000132712 -4.19036e-05 0.100187)
(0.000109174 -4.23864e-05 0.1002)
(8.51916e-05 -4.27057e-05 0.100215)
(6.08289e-05 -4.28757e-05 0.100228)
(3.61731e-05 -4.29078e-05 0.100238)
(1.13301e-05 -4.28109e-05 0.100242)
(-1.3585e-05 -4.25897e-05 0.10024)
(-3.84491e-05 -4.22413e-05 0.100232)
(-6.31386e-05 -4.17613e-05 0.100218)
(-8.75367e-05 -4.11371e-05 0.100202)
(-0.000111539 -4.03557e-05 0.100186)
(-0.000135066 -3.94035e-05 0.100174)
(-0.000158066 -3.82736e-05 0.100169)
(-0.00018052 -3.6974e-05 0.100173)
(-0.000202423 -3.55316e-05 0.100188)
(-0.000223742 -3.39934e-05 0.100213)
(-0.000244314 -3.24152e-05 0.100243)
(-0.000263447 -3.08288e-05 0.10026)
(-0.000278439 -2.9161e-05 0.100187)
(-0.000264895 -2.56301e-05 0.099472)
(-0.00018966 -1.6329e-05 0.0934384)
(0.000186931 -3.4136e-05 0.0932695)
(0.000260892 -5.30982e-05 0.0994012)
(0.000274828 -6.03472e-05 0.10015)
(0.000259845 -6.29752e-05 0.100232)
(0.000240606 -6.48048e-05 0.10022)
(0.000219867 -6.62631e-05 0.100195)
(0.000198374 -6.74474e-05 0.100175)
(0.000176342 -6.83661e-05 0.100166)
(0.00015384 -6.90215e-05 0.100167)
(0.000130892 -6.94318e-05 0.100178)
(0.000107528 -6.96336e-05 0.100194)
(8.37884e-05 -6.96744e-05 0.100212)
(5.9735e-05 -6.96018e-05 0.100229)
(3.54434e-05 -6.94566e-05 0.100241)
(1.09965e-05 -6.92688e-05 0.100246)
(-1.35102e-05 -6.90512e-05 0.100243)
(-3.79809e-05 -6.88068e-05 0.100233)
(-6.23158e-05 -6.85167e-05 0.100217)
(-8.6415e-05 -6.81526e-05 0.100197)
(-0.000110188 -6.76678e-05 0.100177)
(-0.000133555 -6.701e-05 0.10016)
(-0.000156459 -6.61289e-05 0.100152)
(-0.00017886 -6.49887e-05 0.100155)
(-0.000200728 -6.35806e-05 0.10017)
(-0.000221996 -6.19256e-05 0.100198)
(-0.000242459 -6.00507e-05 0.100231)
(-0.000261382 -5.79235e-05 0.10025)
(-0.00027604 -5.52488e-05 0.100174)
(-0.000261788 -4.85459e-05 0.0994251)
(-0.000187295 -3.10591e-05 0.0932839)
(0.000183078 -4.81465e-05 0.0930255)
(0.000255632 -7.52441e-05 0.099324)
(0.000270522 -8.59337e-05 0.100131)
(0.000255984 -8.96618e-05 0.10022)
(0.000237041 -9.20666e-05 0.100207)
(0.000216458 -9.38334e-05 0.10018)
(0.00019505 -9.51469e-05 0.100159)
(0.000173096 -9.60547e-05 0.10015)
(0.000150716 -9.65908e-05 0.100155)
(0.000127974 -9.68085e-05 0.10017)
(0.00010492 -9.67815e-05 0.100191)
(8.16043e-05 -9.65932e-05 0.100215)
(5.80798e-05 -9.63216e-05 0.100236)
(3.43981e-05 -9.60324e-05 0.100251)
(1.06165e-05 -9.57714e-05 0.100257)
(-1.32131e-05 -9.55628e-05 0.100254)
(-3.70297e-05 -9.5408e-05 0.100241)
(-6.07702e-05 -9.5285e-05 0.100221)
(-8.43683e-05 -9.51461e-05 0.100195)
(-0.000107749 -9.49202e-05 0.100168)
(-0.000130842 -9.45193e-05 0.100145)
(-0.000153578 -9.38492e-05 0.100131)
(-0.00017589 -9.28284e-05 0.10013)
(-0.000197709 -9.14078e-05 0.100145)
(-0.000218913 -8.95695e-05 0.100174)
(-0.000239228 -8.73053e-05 0.100212)
(-0.000257863 -8.45019e-05 0.100235)
(-0.000272068 -8.06268e-05 0.100153)
(-0.000256832 -7.04283e-05 0.0993489)
(-0.000183631 -4.48583e-05 0.0930415)
(0.000178024 -6.08477e-05 0.0926791)
(0.000248555 -9.59107e-05 0.0992084)
(0.000264667 -0.000110493 0.100099)
(0.000250686 -0.000115557 0.1002)
(0.000232111 -0.000118702 0.100186)
(0.000211727 -0.00012089 0.100157)
(0.000190424 -0.000122419 0.100136)
(0.000168579 -0.000123393 0.100131)
(0.00014638 -0.000123884 0.100141)
(0.000123942 -0.000123984 0.100163)
(0.000101342 -0.000123807 0.100192)
(7.86355e-05 -0.000123464 0.100223)
(5.5861e-05 -0.000123059 0.10025)
(3.30406e-05 -0.000122675 0.100269)
(1.01845e-05 -0.000122366 0.100278)
(-1.26976e-05 -0.000122169 0.100274)
(-3.55993e-05 -0.000122082 0.100258)
(-5.85055e-05 -0.000122085 0.100232)
(-8.13884e-05 -0.000122115 0.100198)
(-0.000104209 -0.000122087 0.100162)
(-0.000126904 -0.000121879 0.10013)
(-0.000149396 -0.000121364 0.100107)
(-0.000171587 -0.000120409 0.100099)
(-0.00019335 -0.000118913 0.10011)
(-0.000214489 -0.000116812 0.10014)
(-0.000234637 -0.000114036 0.100181)
(-0.00025292 -0.000110368 0.100207)
(-0.000266569 -0.000105005 0.100118)
(-0.000250091 -9.08047e-05 0.0992337)
(-0.000178793 -5.72767e-05 0.092697)
(0.000171951 -7.17725e-05 0.0922102)
(0.000239747 -0.000114615 0.0990405)
(0.000257328 -0.000133754 0.100046)
(0.000243975 -0.000140501 0.100164)
(0.000225818 -0.000144592 0.100152)
(0.000205651 -0.000147331 0.100124)
(0.000184467 -0.000149175 0.100107)
(0.000162759 -0.000150301 0.100108)
(0.000140809 -0.000150835 0.100128)
(0.000118786 -0.000150919 0.100161)
(9.67956e-05 -0.000150692 0.100201)
(7.48953e-05 -0.000150294 0.10024)
(5.30948e-05 -0.00014984 0.100275)
(3.13775e-05 -0.00014942 0.100298)
(9.70311e-06 -0.000149101 0.100309)
(-1.19765e-05 -0.000148912 0.100305)
(-3.37091e-05 -0.000148867 0.100286)
(-5.55372e-05 -0.000148934 0.100253)
(-7.74874e-05 -0.000149059 0.100211)
(-9.9558e-05 -0.000149137 0.100164)
(-0.000121713 -0.000149042 0.100118)
(-0.000143872 -0.000148604 0.100082)
(-0.000165899 -0.000147652 0.100062)
(-0.000187606 -0.000146022 0.100065)
(-0.000208699 -0.000143577 0.100091)
(-0.000228684 -0.000140164 0.100132)
(-0.000246584 -0.000135395 0.100161)
(-0.000259623 -0.000128155 0.100059)
(-0.000241674 -0.00010919 0.099065)
(-0.000172991 -6.78192e-05 0.0922301)
(0.00016515 -8.04203e-05 0.0915932)
(0.000229343 -0.000130834 0.0988002)
(0.000248575 -0.000155495 0.0999623)
(0.000235858 -0.000164353 0.100106)
(0.000218141 -0.000169629 0.1001)
(0.000198189 -0.000173073 0.100077)
(0.000177118 -0.000175332 0.10007)
(0.000155589 -0.000176703 0.100085)
(0.000133976 -0.000177385 0.100119)
(0.00011251 -0.000177568 0.100167)
(9.13147e-05 -0.000177419 0.100219)
(7.04275e-05 -0.000177083 0.100269)
(4.98267e-05 -0.00017668 0.100311)
(2.94388e-05 -0.000176297 0.100339)
(9.17472e-06 -0.000175999 0.100352)
(-1.1072e-05 -0.000175825 0.100348)
(-3.14043e-05 -0.000175781 0.100326)
(-5.19209e-05 -0.000175848 0.100288)
(-7.27058e-05 -0.000175967 0.100237)
(-9.38147e-05 -0.000176046 0.100177)
(-0.000115252 -0.000175947 0.100116)
(-0.000136945 -0.000175494 0.100061)
(-0.000158744 -0.000174475 0.100024)
(-0.000180387 -0.000172655 0.100011)
(-0.000201472 -0.000169802 0.100026)
(-0.000221329 -0.000165614 0.100061)
(-0.000238864 -0.000159508 0.100086)
(-0.000251307 -0.000149895 0.0999642)
(-0.000231738 -0.000125104 0.0988214)
(-0.000166559 -7.59628e-05 0.0916148)
(0.000158123 -8.62059e-05 0.0907998)
(0.000217525 -0.000143999 0.0984559)
(0.000238461 -0.000175493 0.0998324)
(0.00022633 -0.000187014 0.100016)
(0.000208999 -0.000193742 0.100025)
(0.000189228 -0.000198034 0.100019)
(0.000168281 -0.000200799 0.10003)
(0.000147001 -0.000202506 0.100066)
(0.000125872 -0.000203457 0.10012)
(0.000105159 -0.000203876 0.100185)
(8.49798e-05 -0.00020395 0.100252)
(6.53355e-05 -0.00020381 0.100312)
(4.61455e-05 -0.000203562 0.10036)
(2.72849e-05 -0.000203292 0.100393)
(8.60821e-06 -0.000203053 0.100408)
(-1.00264e-05 -0.000202891 0.100404)
(-2.87691e-05 -0.000202813 0.10038)
(-4.77653e-05 -0.000202805 0.100338)
(-6.71545e-05 -0.000202812 0.100279)
(-8.70553e-05 -0.000202762 0.100207)
(-0.000107534 -0.000202524 0.100128)
(-0.00012857 -0.000201939 0.100053)
(-0.000150005 -0.000200764 0.0999903)
(-0.000171538 -0.000198712 0.0999522)
(-0.000192645 -0.000195412 0.0999448)
(-0.000212465 -0.000190355 0.0999637)
(-0.00022972 -0.000182657 0.0999748)
(-0.000241681 -0.000170082 0.099818)
(-0.000220486 -0.000138026 0.0984702)
(-0.000160052 -8.11334e-05 0.0908223)
(0.000151661 -8.88477e-05 0.0897713)
(0.000204359 -0.000153501 0.0979505)
(0.000226878 -0.000193494 0.0996325)
(0.000215193 -0.000208309 0.0998848)
(0.000198198 -0.000216794 0.0999276)
(0.00017858 -0.000222062 0.0999513)
(0.000157812 -0.000225416 0.0999934)
(0.00013693 -0.000227564 0.100058)
(0.000116516 -0.000228922 0.100137)
(9.68362e-05 -0.000229743 0.100221)
(7.79513e-05 -0.000230196 0.100301)
(5.97916e-05 -0.000230386 0.10037)
(4.22001e-05 -0.000230397 0.100424)
(2.50038e-05 -0.000230298 0.100459)
(8.02557e-06 -0.000230157 0.100475)
(-8.90246e-06 -0.000230004 0.100472)
(-2.59385e-05 -0.000229864 0.100448)
(-4.32519e-05 -0.000229709 0.100403)
(-6.10263e-05 -0.000229507 0.100339)
(-7.94445e-05 -0.000229182 0.100258)
(-9.86569e-05 -0.000228653 0.100163)
(-0.000118722 -0.00022778 0.100064)
(-0.000139555 -0.000226339 0.0999716)
(-0.000160844 -0.000223999 0.0998986)
(-0.000181957 -0.00022024 0.0998549)
(-0.000201811 -0.000214268 0.0998393)
(-0.000218919 -0.000204714 0.0998159)
(-0.000230598 -0.000188551 0.0995948)
(-0.000207994 -0.000147411 0.0979522)
(-0.000154286 -8.3085e-05 0.0897921)
(0.000145588 -8.81844e-05 0.088397)
(0.000189523 -0.000158769 0.0971831)
(0.000213338 -0.000208746 0.0993253)
(0.000202047 -0.00022767 0.0997021)
(0.00018535 -0.000238322 0.0998096)
(0.000165899 -0.000244723 0.0998831)
(0.000145452 -0.000248793 0.0999678)
(0.000125259 -0.000251549 0.100067)
(0.000105953 -0.000253498 0.100174)
(8.77057e-05 -0.000254921 0.100277)
(7.046e-05 -0.000255912 0.100367)
(5.40274e-05 -0.000256557 0.100442)
(3.81853e-05 -0.000256904 0.100497)
(2.27139e-05 -0.000257034 0.100533)
(7.44251e-06 -0.000257005 0.10055)
(-7.77477e-06 -0.00025687 0.100548)
(-2.30789e-05 -0.000256637 0.100525)
(-3.86234e-05 -0.00025629 0.100482)
(-5.45984e-05 -0.000255782 0.100417)
(-7.12344e-05 -0.000255057 0.10033)
(-8.87808e-05 -0.00025406 0.100223)
(-0.000107424 -0.000252698 0.100103)
(-0.000127215 -0.000250824 0.0999778)
(-0.000147946 -0.000248067 0.0998618)
(-0.000168932 -0.000243807 0.0997672)
(-0.000188863 -0.000236853 0.0996941)
(-0.000205936 -0.000225156 0.0996012)
(-0.000217481 -0.000204614 0.0992567)
(-0.000193925 -0.000152862 0.0971651)
(-0.000149081 -8.17645e-05 0.0884114)
(0.000139674 -8.68116e-05 0.0865519)
(0.000172858 -0.000155898 0.0959688)
(0.000197144 -0.000219577 0.0988447)
(0.000186178 -0.00024427 0.0994562)
(0.000169574 -0.000257272 0.0996741)
(0.000150318 -0.000264983 0.0998172)
(0.000130536 -0.00027 0.0999544)
(0.000111652 -0.00027363 0.100093)
(9.41175e-05 -0.00027649 0.100226)
(7.7902e-05 -0.000278735 0.100343)
(6.27237e-05 -0.000280456 0.10044)
(4.82736e-05 -0.000281643 0.100516)
(3.42712e-05 -0.000282398 0.10057)
(2.05152e-05 -0.00028278 0.100604)
(6.87964e-06 -0.000282887 0.100621)
(-6.7223e-06 -0.000282765 0.10062)
(-2.03545e-05 -0.000282426 0.100601)
(-3.4114e-05 -0.000281851 0.100562)
(-4.81493e-05 -0.000280968 0.1005)
(-6.26982e-05 -0.000279727 0.100414)
(-7.80658e-05 -0.000278063 0.100302)
(-9.46051e-05 -0.000275966 0.100165)
(-0.000112593 -0.00027333 0.10001)
(-0.000132071 -0.000269918 0.099848)
(-0.00015254 -0.000264973 0.0996908)
(-0.000172515 -0.000256999 0.0995367)
(-0.000189818 -0.00024311 0.0993234)
(-0.000201433 -0.000216684 0.0987402)
(-0.000177897 -0.000150623 0.0959229)
(-0.000144181 -8.01115e-05 0.0865543)
(0.00014399 -5.73211e-05 0.0839849)
(0.00015193 -0.000148087 0.0939182)
(0.000176061 -0.000228954 0.0980477)
(0.000165688 -0.000256571 0.0991083)
(0.000148419 -0.000271689 0.0994838)
(0.000129385 -0.000280938 0.0997145)
(0.000111353 -0.000287355 0.0999158)
(9.50668e-05 -0.000292362 0.100098)
(8.05397e-05 -0.000296444 0.100256)
(6.72612e-05 -0.000299767 0.100384)
(5.47317e-05 -0.000302294 0.100484)
(4.25589e-05 -0.000304111 0.100557)
(3.0486e-05 -0.000305286 0.100609)
(1.84142e-05 -0.000305962 0.100641)
(6.30857e-06 -0.000306211 0.100657)
(-5.7827e-06 -0.000306101 0.100658)
(-1.78368e-05 -0.000305651 0.100643)
(-2.98241e-05 -0.000304803 0.100609)
(-4.17932e-05 -0.000303514 0.100555)
(-5.38922e-05 -0.000301669 0.100474)
(-6.64258e-05 -0.000299216 0.100362)
(-7.98203e-05 -0.000296112 0.100216)
(-9.46441e-05 -0.000292363 0.100035)
(-0.000111396 -0.00028778 0.0998248)
(-0.000130107 -0.000281749 0.0995941)
(-0.00014999 -0.000272598 0.0993386)
(-0.000168212 -0.000257013 0.0989522)
(-0.00017971 -0.000227788 0.097909)
(-0.000156984 -0.00014409 0.0938407)