/*--------------------------------*- C++ -*----------------------------------*\
| =========                 |                                                 |
| \\      /  F ield         | OpenFOAM: The Open Source CFD Toolbox           |
|  \\    /   O peration     | Version:  2312                                  |
|   \\  /    A nd           | Website:  www.openfoam.com                      |
|    \\/     M anipulation  |                                                 |
\*---------------------------------------------------------------------------*/
FoamFile
{
    version     2.0;
    format      ascii;
    arch        "LSB;label=32;scalar=64";
    class       volScalarField;
    location    "950";
    object      alphat;
}
// * * * * * * * * * * * * * * * * * * * * * * * * * * * * * * * * * * * * * //

dimensions      [1 -1 -1 0 0 0 0];

internalField   nonuniform List<scalar> 
27000
(
0.00394868
0.00670364
0.00936674
0.0117538
0.0140749
0.0162417
0.0182088
0.0198708
0.0213007
0.022523
0.023539
0.0243492
0.0249499
0.0253473
0.0255455
0.0255459
0.0253484
0.0249515
0.0243508
0.0235408
0.0225248
0.0213022
0.0198717
0.0182088
0.0162403
0.0140718
0.0117486
0.00936
0.00669743
0.00394522
0.0057449
0.00127455
0.00515895
0.00907732
0.0131501
0.0170112
0.0206507
0.0240299
0.0270877
0.0298013
0.0321395
0.034068
0.0355602
0.0365811
0.0370977
0.0370946
0.0365723
0.0355473
0.0340537
0.032125
0.0297873
0.0270748
0.0240196
0.0206446
0.0170075
0.0131454
0.00907244
0.00515201
0.00127115
0.00574045
0.00921929
0.00712338
0.0146148
0.0262589
0.036906
0.0461834
0.0546357
0.0625226
0.0696842
0.075995
0.0813714
0.0857536
0.0890978
0.0913626
0.0925051
0.0925022
0.091356
0.0890944
0.0857651
0.0814117
0.0760624
0.0697762
0.0626344
0.0547572
0.0463105
0.0370193
0.0263628
0.0146606
0.00710709
0.00921336
0.0121538
0.0108454
0.0262465
0.0528821
0.0783255
0.0963265
0.109741
0.120685
0.129855
0.137445
0.143648
0.148544
0.152187
0.15461
0.155822
0.155828
0.154631
0.152233
0.148628
0.143781
0.137621
0.130074
0.120932
0.109988
0.0965596
0.0785708
0.0531416
0.0263775
0.0108378
0.0121498
0.0149259
0.0144861
0.0370784
0.0764981
0.11343
0.13917
0.155951
0.167745
0.176515
0.182852
0.187771
0.191537
0.194276
0.196068
0.196958
0.196969
0.196104
0.194344
0.191643
0.187909
0.18299
0.1767
0.167967
0.156183
0.139422
0.113732
0.0768088
0.037231
0.0144824
0.0149246
0.0174936
0.0184191
0.0478863
0.0955854
0.138109
0.167502
0.185485
0.196798
0.204238
0.209232
0.212701
0.215156
0.216856
0.217937
0.218467
0.218478
0.217972
0.216918
0.215246
0.212814
0.209363
0.204395
0.196976
0.185692
0.167777
0.13842
0.0958823
0.0480299
0.0184157
0.0174949
0.0198322
0.0225471
0.0586977
0.111813
0.156072
0.185356
0.202992
0.213283
0.219358
0.223016
0.225272
0.226697
0.227599
0.228139
0.228396
0.228405
0.228167
0.227648
0.226767
0.22536
0.223119
0.219477
0.21342
0.203162
0.185576
0.156327
0.112048
0.0587834
0.0225339
0.0198359
0.0219261
0.0267215
0.0691509
0.12581
0.170158
0.19759
0.213542
0.222376
0.227152
0.229703
0.231055
0.231767
0.232142
0.232333
0.232417
0.232424
0.232356
0.23218
0.23182
0.23112
0.229779
0.227238
0.222474
0.213663
0.197739
0.170305
0.125958
0.0691899
0.0267014
0.0219321
0.0237426
0.0308274
0.0789116
0.137752
0.181165
0.206259
0.22015
0.227417
0.231026
0.232711
0.233428
0.233685
0.233743
0.233735
0.233721
0.233727
0.233752
0.233772
0.233723
0.233473
0.232761
0.23108
0.227476
0.220217
0.206332
0.18122
0.137815
0.0789028
0.0307978
0.0237517
0.0252979
0.0347055
0.0877726
0.147744
0.188902
0.212223
0.224332
0.230233
0.232887
0.233929
0.234224
0.234207
0.234095
0.233987
0.233927
0.233932
0.234
0.234115
0.234232
0.23425
0.233954
0.232909
0.230252
0.224351
0.212243
0.188919
0.147738
0.0877209
0.0346682
0.0253085
0.0265931
0.0381999
0.0955209
0.156118
0.195336
0.216577
0.227068
0.231834
0.233749
0.234335
0.234363
0.234197
0.234006
0.233859
0.233783
0.233785
0.233866
0.234017
0.234208
0.234371
0.234336
0.233739
0.231815
0.227042
0.216546
0.195295
0.156051
0.0954333
0.0381564
0.0266048
0.0276283
0.0411744
0.101941
0.162815
0.200353
0.219782
0.228907
0.232769
0.234133
0.234411
0.234276
0.234037
0.233818
0.233665
0.233588
0.233589
0.233667
0.23382
0.234035
0.234266
0.234388
0.234097
0.232717
0.228842
0.219706
0.20026
0.162695
0.101825
0.0411254
0.0276408
0.0284037
0.0435131
0.106881
0.167863
0.204021
0.22204
0.230124
0.233321
0.2343
0.234375
0.234149
0.23388
0.233659
0.233512
0.23344
0.23344
0.23351
0.233653
0.233865
0.234123
0.234334
0.23424
0.233243
0.230029
0.221927
0.203884
0.167686
0.106742
0.0434597
0.0284169
0.02892
0.0451251
0.110233
0.171252
0.206421
0.223477
0.230869
0.233633
0.234369
0.234324
0.234051
0.233772
0.233558
0.23342
0.233354
0.233353
0.233415
0.233545
0.233749
0.234014
0.234269
0.234293
0.233537
0.230753
0.223341
0.206259
0.171055
0.110082
0.0450687
0.0289336
0.0291774
0.0459477
0.111928
0.172946
0.207605
0.224177
0.231223
0.233775
0.234395
0.234295
0.234002
0.233721
0.233512
0.233381
0.233319
0.233316
0.233373
0.233496
0.233693
0.233959
0.234233
0.234311
0.23367
0.231098
0.22403
0.207434
0.172743
0.111771
0.0458898
0.0291913
0.0291763
0.0459492
0.111934
0.172951
0.207609
0.224179
0.231226
0.233777
0.234398
0.234299
0.234006
0.233725
0.233517
0.233386
0.233323
0.233321
0.233378
0.233501
0.233698
0.233963
0.234237
0.234315
0.233673
0.231101
0.224033
0.207438
0.172749
0.111778
0.0458911
0.0291902
0.0289167
0.0451293
0.110252
0.171267
0.206432
0.223485
0.230876
0.233641
0.234378
0.234335
0.234063
0.233784
0.23357
0.233433
0.233367
0.233365
0.233427
0.233557
0.233761
0.234025
0.23428
0.234303
0.233545
0.23076
0.223349
0.206271
0.171073
0.110101
0.0450724
0.0289304
0.0283985
0.0435195
0.106913
0.167891
0.204043
0.222055
0.230137
0.233334
0.234315
0.234392
0.234167
0.233898
0.233677
0.23353
0.233458
0.233458
0.233528
0.23367
0.233883
0.23414
0.234349
0.234254
0.233255
0.230039
0.221939
0.203904
0.167717
0.106774
0.0434653
0.0284116
0.0276214
0.0411821
0.101986
0.162864
0.20039
0.219808
0.228927
0.232788
0.234153
0.234431
0.234297
0.234058
0.233839
0.233685
0.233607
0.233608
0.233687
0.23384
0.234054
0.234285
0.234406
0.234113
0.232731
0.228856
0.219723
0.200289
0.162739
0.101868
0.0411323
0.0276336
0.026585
0.0382079
0.0955777
0.156187
0.195391
0.216617
0.227098
0.231859
0.233771
0.234357
0.234384
0.234217
0.234024
0.233876
0.233799
0.233801
0.233883
0.234034
0.234226
0.234389
0.234353
0.233756
0.231831
0.227059
0.216568
0.195332
0.156106
0.0954851
0.0381637
0.0265961
0.025289
0.0347125
0.08784
0.147836
0.18898
0.212281
0.224375
0.230265
0.232913
0.233951
0.234242
0.234222
0.234106
0.233997
0.233936
0.23394
0.234009
0.234126
0.234245
0.234265
0.23397
0.232925
0.23027
0.224372
0.212272
0.188966
0.147804
0.0877779
0.0346748
0.0252986
0.0237333
0.0308322
0.0789873
0.13787
0.181266
0.206341
0.22021
0.227461
0.231057
0.232732
0.233442
0.233692
0.233746
0.233734
0.23372
0.233726
0.233752
0.233775
0.23373
0.233484
0.232776
0.231099
0.2275
0.220249
0.206377
0.181284
0.137892
0.0789602
0.0308015
0.0237411
0.0219169
0.0267229
0.0692328
0.125958
0.170297
0.197708
0.213629
0.222437
0.227193
0.229728
0.231067
0.23177
0.232138
0.232324
0.232406
0.232414
0.232348
0.232178
0.231824
0.231132
0.229799
0.227267
0.222514
0.213715
0.197807
0.170392
0.12605
0.0692463
0.0266998
0.0219226
0.0198246
0.0225449
0.0587885
0.111998
0.156266
0.185519
0.203115
0.213371
0.219418
0.223052
0.225292
0.226705
0.227597
0.22813
0.228384
0.228394
0.22816
0.227649
0.226779
0.225384
0.223156
0.219529
0.213489
0.203249
0.185681
0.156447
0.112162
0.0588448
0.0225302
0.0198271
0.0174863
0.0184191
0.0479958
0.0958
0.138345
0.167706
0.18565
0.196924
0.204329
0.209289
0.212743
0.215185
0.216873
0.217944
0.218469
0.218482
0.217981
0.216939
0.215282
0.212869
0.209435
0.204485
0.197089
0.185829
0.167926
0.138578
0.0960174
0.0480998
0.0184131
0.0174867
0.014919
0.0144816
0.0371776
0.0767192
0.113685
0.139402
0.156154
0.167906
0.176635
0.182924
0.187855
0.191606
0.194329
0.19611
0.196996
0.197009
0.196151
0.194404
0.191721
0.18801
0.183112
0.176835
0.168124
0.15637
0.139622
0.113927
0.0769561
0.0372909
0.0144757
0.0149172
0.0121473
0.0108367
0.0263218
0.0530668
0.07854
0.0965418
0.109954
0.120885
0.130032
0.137594
0.143774
0.148644
0.152272
0.154688
0.1559
0.15591
0.154719
0.152333
0.148745
0.143918
0.137778
0.130249
0.121122
0.110189
0.0967606
0.0787555
0.0532776
0.0264219
0.0108278
0.0121434
0.00921384
0.0071134
0.0146353
0.0263296
0.036999
0.0462927
0.0547415
0.0626277
0.0697834
0.0760849
0.081449
0.0858162
0.0891607
0.09143
0.0925772
0.0925789
0.0914368
0.0891785
0.0858559
0.0815107
0.076168
0.069886
0.062746
0.0548686
0.0464183
0.0371079
0.0264216
0.0146727
0.00709924
0.00920875
0.00574097
0.00127238
0.00515159
0.00907121
0.0131454
0.0170084
0.0206474
0.0240255
0.0270831
0.0297969
0.0321353
0.0340647
0.0355626
0.036587
0.0371058
0.0371043
0.0365828
0.0355567
0.0340588
0.0321295
0.0297914
0.0270785
0.0240228
0.0206483
0.0170094
0.0131445
0.0090682
0.00514598
0.0012695
0.00573728
0.00394634
0.00669937
0.00936124
0.0117479
0.0140686
0.016235
0.0182016
0.0198631
0.0212925
0.0225142
0.0235296
0.0243389
0.024937
0.0253334
0.0255312
0.0255312
0.0253336
0.0249373
0.0243391
0.0235297
0.0225142
0.0212921
0.0198622
0.0181999
0.0162323
0.0140648
0.0117428
0.00935517
0.0066939
0.0039434
0.00356898
0.00609818
0.00869621
0.0110571
0.0134164
0.0156472
0.0177053
0.0194797
0.021025
0.0223462
0.0234506
0.0243374
0.0250149
0.0254716
0.0257006
0.0257002
0.0254705
0.0250132
0.024336
0.0234487
0.0223439
0.0210228
0.0194766
0.0177046
0.0156504
0.0134237
0.0110683
0.00870985
0.0061114
0.00357658
0.00513679
0.00163728
0.00751116
0.0111205
0.0147138
0.0177291
0.0203124
0.0227349
0.024835
0.0266375
0.0281518
0.0293726
0.0302864
0.0308908
0.0311922
0.0311924
0.030891
0.0302855
0.0293683
0.0281425
0.0266255
0.0248242
0.0227314
0.0203589
0.0177966
0.0147732
0.0111629
0.00753077
0.00164995
0.00514778
0.00870371
0.0102871
0.013182
0.0166273
0.0217822
0.0272529
0.0323479
0.0368531
0.0409657
0.0446418
0.0477764
0.0502752
0.0521662
0.0534394
0.0540892
0.0541122
0.0535063
0.0522685
0.0503843
0.0478182
0.0446521
0.0409556
0.0368244
0.0323018
0.0271706
0.0217134
0.0165799
0.0131834
0.0103597
0.00871746
0.0115796
0.0135163
0.0177782
0.0253603
0.0353506
0.0460182
0.0556861
0.0642501
0.0718904
0.0788315
0.0847315
0.0894374
0.0929278
0.0952427
0.0964136
0.0964551
0.0953619
0.0931055
0.089634
0.0848981
0.0789575
0.0719455
0.0642114
0.0555625
0.045848
0.0351867
0.0252628
0.0177726
0.0135876
0.0115884
0.0144226
0.0159985
0.0226502
0.0353357
0.0534609
0.0725937
0.0889335
0.102034
0.112743
0.121979
0.129479
0.135265
0.139339
0.141961
0.143257
0.143279
0.142022
0.139422
0.135343
0.129535
0.122011
0.112671
0.101839
0.0886238
0.0722513
0.0532193
0.0352041
0.0225741
0.0160639
0.014425
0.0171297
0.0181992
0.028456
0.0464665
0.0721736
0.0986857
0.121132
0.137532
0.149477
0.158668
0.165786
0.171132
0.174892
0.177278
0.178442
0.178451
0.1773
0.174915
0.171143
0.165773
0.158614
0.149361
0.137347
0.120829
0.0983454
0.0719049
0.0463497
0.0283667
0.0182601
0.0171267
0.0196394
0.0205723
0.0338636
0.0578526
0.0898953
0.121359
0.146076
0.16366
0.175908
0.184609
0.19091
0.195439
0.198555
0.200502
0.201439
0.201441
0.200505
0.198553
0.195426
0.190881
0.184559
0.175833
0.163551
0.14591
0.121132
0.0897555
0.05784
0.0338478
0.0205765
0.0196339
0.0219314
0.0230658
0.0390227
0.0686336
0.105391
0.139077
0.164225
0.181747
0.193578
0.201548
0.206972
0.210664
0.213109
0.214598
0.215303
0.215301
0.214592
0.213097
0.210645
0.206945
0.201516
0.193541
0.181701
0.164159
0.13901
0.105416
0.0687582
0.0390427
0.0230645
0.0219243
0.0240297
0.0253921
0.0439698
0.0787565
0.118674
0.152773
0.177403
0.194117
0.205076
0.212155
0.216717
0.219651
0.221501
0.222588
0.22309
0.223087
0.222578
0.221485
0.21963
0.216695
0.212138
0.205068
0.194117
0.177413
0.152818
0.118826
0.0789748
0.044017
0.0253952
0.0240195
0.0258705
0.0274835
0.0484473
0.0875621
0.130058
0.163546
0.187071
0.202616
0.212503
0.218641
0.222401
0.224682
0.226039
0.2268
0.227139
0.227135
0.226788
0.226022
0.224663
0.222387
0.21864
0.212518
0.202651
0.18713
0.163645
0.13023
0.0878188
0.0485128
0.0274915
0.0258598
0.0274312
0.0293068
0.0523341
0.0947862
0.138548
0.171662
0.194095
0.208458
0.21729
0.222553
0.225612
0.227354
0.228323
0.228832
0.229048
0.229044
0.228822
0.22831
0.227343
0.22561
0.222568
0.217329
0.208524
0.194191
0.171798
0.138749
0.0950557
0.0524117
0.0293189
0.0274204
0.0286967
0.0308237
0.055563
0.100535
0.144968
0.177622
0.199099
0.212433
0.220356
0.224882
0.227374
0.228697
0.229374
0.229699
0.229828
0.229826
0.229693
0.229368
0.228698
0.227388
0.224917
0.220418
0.212525
0.199222
0.177783
0.145182
0.100796
0.0556469
0.0308394
0.0286857
0.0296554
0.0319989
0.0580757
0.1049
0.149663
0.181845
0.202536
0.215059
0.222276
0.22624
0.22831
0.229331
0.229802
0.230002
0.230072
0.230071
0.230001
0.229805
0.229343
0.228339
0.226293
0.222357
0.215171
0.202678
0.182017
0.149869
0.105124
0.0581606
0.0320174
0.0296442
0.0302993
0.0328012
0.0597992
0.107862
0.152768
0.184569
0.204698
0.216659
0.223396
0.226985
0.228778
0.229604
0.229947
0.230069
0.230104
0.230105
0.230073
0.229957
0.229627
0.228819
0.227052
0.223492
0.216784
0.20485
0.184746
0.152968
0.108074
0.0598837
0.0328215
0.0302878
0.0306228
0.0332075
0.0606748
0.109353
0.154315
0.185908
0.205743
0.217416
0.22391
0.227311
0.228966
0.229698
0.229978
0.230064
0.230082
0.230083
0.230071
0.229994
0.229727
0.229016
0.227386
0.224014
0.217548
0.2059
0.186086
0.154512
0.109557
0.0607584
0.0332286
0.0306112
0.0306235
0.0332054
0.0606737
0.109352
0.154316
0.185909
0.205742
0.217414
0.223905
0.227304
0.228958
0.229688
0.229968
0.230053
0.23007
0.230073
0.23006
0.229984
0.229719
0.229009
0.227381
0.22401
0.217546
0.205899
0.186085
0.15451
0.109553
0.0607564
0.0332266
0.0306119
0.0303013
0.032795
0.0597957
0.10786
0.15277
0.184572
0.204697
0.216652
0.223382
0.226965
0.228753
0.229576
0.229916
0.230037
0.230071
0.230073
0.230043
0.22993
0.229603
0.228799
0.227036
0.223481
0.216778
0.204847
0.184743
0.152962
0.10806
0.0598774
0.0328154
0.0302897
0.0296588
0.0319888
0.0580694
0.104897
0.149668
0.18185
0.202536
0.215049
0.222255
0.22621
0.228272
0.229287
0.229755
0.229953
0.230023
0.230023
0.229956
0.229764
0.229306
0.228308
0.22627
0.222342
0.215163
0.202675
0.182014
0.149858
0.105101
0.0581499
0.0320075
0.0296474
0.0287011
0.0308101
0.0555529
0.100537
0.144976
0.177628
0.199098
0.212421
0.220332
0.224846
0.227328
0.228645
0.229317
0.22964
0.229768
0.229767
0.229638
0.229318
0.228654
0.227351
0.22489
0.220401
0.212517
0.199221
0.17778
0.145167
0.100764
0.0556315
0.0308262
0.02869
0.0274365
0.0292903
0.0523203
0.0947899
0.138554
0.171665
0.194093
0.208446
0.217266
0.222517
0.225566
0.2273
0.228264
0.228771
0.228987
0.228985
0.228766
0.228259
0.227299
0.225575
0.222544
0.217315
0.208519
0.194191
0.171794
0.138728
0.095013
0.0523916
0.0293032
0.0274259
0.0258764
0.0274652
0.0484299
0.087565
0.130054
0.16354
0.187065
0.202605
0.212484
0.218613
0.222363
0.224637
0.22599
0.226748
0.227087
0.227084
0.226741
0.22598
0.224628
0.222361
0.218623
0.212512
0.202652
0.187131
0.163634
0.130197
0.0877667
0.0484899
0.0274743
0.0258664
0.024036
0.0253734
0.0439491
0.0787536
0.118649
0.152751
0.177391
0.194111
0.205067
0.212139
0.216695
0.219624
0.221472
0.222557
0.223059
0.223056
0.22255
0.221461
0.219612
0.216684
0.212136
0.205073
0.194126
0.177415
0.152796
0.118763
0.0789136
0.0439934
0.0253788
0.0240269
0.0219377
0.0230498
0.0389977
0.0686178
0.105345
0.139034
0.164203
0.181743
0.193579
0.20155
0.206971
0.210663
0.213107
0.214597
0.215302
0.215301
0.214593
0.213098
0.210649
0.206953
0.20153
0.19356
0.181718
0.164164
0.138987
0.105352
0.0686994
0.0390189
0.0230525
0.02193
0.0196433
0.0205642
0.0338288
0.0578158
0.0898278
0.121276
0.146035
0.16365
0.175914
0.184624
0.190932
0.195466
0.198587
0.200538
0.201476
0.201476
0.200538
0.198582
0.195452
0.190904
0.184583
0.175858
0.16357
0.145911
0.121098
0.0897043
0.057796
0.0338204
0.020569
0.019639
0.0171374
0.0182351
0.0283854
0.0464161
0.072101
0.0985986
0.12106
0.137506
0.149479
0.158697
0.165829
0.171191
0.174963
0.177355
0.178519
0.178524
0.177365
0.17497
0.171183
0.165797
0.158631
0.149377
0.13736
0.12082
0.0983283
0.0718814
0.0463167
0.028317
0.0182851
0.0171358
0.0144317
0.0160328
0.0225993
0.035308
0.0534174
0.0725374
0.0888901
0.102015
0.112766
0.122054
0.129549
0.135366
0.139458
0.142083
0.143375
0.143387
0.142116
0.139496
0.13539
0.129545
0.122007
0.112667
0.101835
0.0886328
0.0722622
0.0532252
0.0351998
0.0225388
0.0160858
0.0144344
0.0115895
0.0135525
0.0177855
0.0253339
0.0353285
0.0459957
0.0556789
0.0642722
0.0719469
0.0789194
0.0848464
0.0895925
0.0930958
0.0954044
0.0965615
0.0965863
0.0954734
0.09319
0.089681
0.0849218
0.0789666
0.0719474
0.0642154
0.0555673
0.0458579
0.035199
0.025256
0.017778
0.013609
0.0115972
0.00871317
0.0103177
0.013186
0.0165981
0.0217361
0.0271955
0.0323211
0.0368322
0.0409521
0.0446419
0.0478049
0.0503705
0.0522678
0.0535351
0.0541772
0.0541919
0.0535767
0.0523237
0.05039
0.0478064
0.0446318
0.0409302
0.0367993
0.0322718
0.0271301
0.021683
0.0165605
0.0131843
0.0103713
0.00872394
0.00514352
0.00164197
0.00751974
0.0111388
0.0147432
0.0177629
0.0203278
0.022715
0.024809
0.0266106
0.0281253
0.0293469
0.0302552
0.0308566
0.0311565
0.031156
0.0308548
0.0302514
0.0293385
0.0281134
0.0265968
0.0247958
0.0227096
0.0203734
0.0178159
0.0147885
0.0111708
0.00753519
0.0016519
0.00515249
0.00357319
0.00610539
0.00870483
0.0110661
0.0134254
0.0156556
0.0177127
0.019486
0.0210289
0.0223502
0.0234548
0.0243424
0.0250242
0.0254818
0.0257112
0.025711
0.0254815
0.0250237
0.0243419
0.0234542
0.0223494
0.0210282
0.0194857
0.0177146
0.0156604
0.0134329
0.0110761
0.00871624
0.00611607
0.00357933
0.00336592
0.00572608
0.00824816
0.0105778
0.0129204
0.0151355
0.0171679
0.0189067
0.0204223
0.0217434
0.0228542
0.0237487
0.0244178
0.0248636
0.025087
0.0250872
0.0248644
0.0244191
0.0237502
0.0228562
0.0217458
0.0204247
0.0189101
0.0171691
0.0151328
0.012914
0.0105682
0.00823701
0.00571451
0.00335911
0.00487616
0.00250894
0.0106727
0.015915
0.0209798
0.0254947
0.0293515
0.032336
0.0346258
0.0363392
0.0376177
0.038563
0.0392402
0.0396829
0.0399046
0.0399104
0.0397002
0.0392688
0.0386023
0.0376665
0.0363952
0.0346861
0.032395
0.0293657
0.025474
0.0209471
0.0158866
0.0106602
0.0024871
0.00486584
0.00828684
0.0130427
0.0173058
0.0210517
0.0240328
0.027125
0.0301661
0.0330808
0.0359052
0.0383732
0.0404713
0.0422018
0.0435216
0.044414
0.0448684
0.0448797
0.044448
0.0435792
0.0422883
0.0406109
0.0385393
0.0360816
0.0332444
0.030257
0.0271861
0.024076
0.0210854
0.0172992
0.012959
0.00827276
0.0110622
0.0181667
0.0232989
0.0248694
0.0287193
0.0348181
0.0415416
0.0478235
0.053217
0.0575552
0.0612269
0.064266
0.0666307
0.0682396
0.0690506
0.069046
0.0682259
0.0666094
0.0642443
0.0612174
0.057565
0.0532552
0.0478867
0.0415581
0.0347747
0.0287613
0.0249027
0.0232756
0.0181008
0.0110515
0.0138012
0.0221234
0.0263873
0.0295507
0.0384447
0.0511351
0.062672
0.0721415
0.0798842
0.0862744
0.0915163
0.0958057
0.099423
0.101937
0.103211
0.103212
0.101941
0.0994327
0.0958298
0.0915643
0.0863886
0.0800787
0.0724097
0.0629557
0.0511738
0.0383485
0.0295773
0.0264159
0.0220754
0.0137963
0.0164297
0.0255932
0.0286353
0.035921
0.0513699
0.0696519
0.0872137
0.101804
0.11343
0.122405
0.129327
0.134649
0.13867
0.141362
0.142689
0.142699
0.141394
0.138719
0.134731
0.129462
0.122626
0.113756
0.102242
0.0877927
0.0699939
0.0514506
0.03597
0.0286953
0.025564
0.0164304
0.0189037
0.0282784
0.0310653
0.0437118
0.0638056
0.0876198
0.110863
0.129408
0.142969
0.152866
0.160124
0.16543
0.169207
0.171651
0.172853
0.172871
0.171705
0.169297
0.165563
0.160308
0.153111
0.143277
0.129793
0.111335
0.0880647
0.0639846
0.0437644
0.0311508
0.0283059
0.0189071
0.0211865
0.0303673
0.0342669
0.0511058
0.0752
0.104021
0.130445
0.150462
0.16482
0.17496
0.18209
0.187066
0.190446
0.192558
0.193581
0.193602
0.192619
0.190549
0.18721
0.182273
0.17518
0.165074
0.150749
0.130741
0.10426
0.0752814
0.0510831
0.034406
0.0304001
0.0211909
0.0232234
0.0320297
0.0376217
0.0574047
0.0852411
0.118146
0.14563
0.165952
0.180298
0.190203
0.196952
0.201484
0.204439
0.206224
0.207072
0.207092
0.206284
0.204538
0.201618
0.197115
0.190387
0.180492
0.166146
0.145799
0.118231
0.0851916
0.0573332
0.0377511
0.0320532
0.0232291
0.0250158
0.0333862
0.0409095
0.0633477
0.095063
0.129835
0.157325
0.177262
0.191119
0.200503
0.206729
0.210773
0.213316
0.2148
0.21549
0.215508
0.214853
0.213402
0.210887
0.206862
0.200645
0.191258
0.177384
0.157408
0.129845
0.0949799
0.0632513
0.0410147
0.0333998
0.0250215
0.0265446
0.0344982
0.0439126
0.0686317
0.103649
0.138996
0.166148
0.185432
0.198606
0.207354
0.213016
0.216582
0.218747
0.219969
0.220524
0.220538
0.220012
0.218815
0.216669
0.213114
0.207453
0.198694
0.185495
0.166169
0.138955
0.103536
0.0685236
0.0439885
0.034503
0.0265502
0.0277913
0.0353964
0.0464749
0.0730366
0.110544
0.145995
0.172634
0.19122
0.2037
0.211827
0.216962
0.220103
0.221946
0.222952
0.223397
0.223407
0.222983
0.221994
0.220163
0.217026
0.211885
0.203742
0.191234
0.172608
0.145917
0.110415
0.0729266
0.0465228
0.0353938
0.027797
0.0287403
0.0360833
0.0484282
0.0763597
0.115659
0.151054
0.177191
0.195163
0.207048
0.214651
0.219353
0.222154
0.223747
0.224588
0.224949
0.224956
0.224608
0.223777
0.22219
0.219387
0.214675
0.207053
0.19514
0.177132
0.150955
0.115531
0.0762718
0.0484527
0.0360749
0.0287462
0.0293794
0.0365515
0.0497571
0.0785609
0.119022
0.154337
0.180096
0.197619
0.209075
0.216305
0.220702
0.223266
0.224689
0.225419
0.225725
0.225729
0.225432
0.224707
0.223285
0.220715
0.216305
0.209055
0.197571
0.180017
0.154226
0.118894
0.0784755
0.0497759
0.0365396
0.0293856
0.0297006
0.0367904
0.0504349
0.0796686
0.12069
0.155955
0.181514
0.198802
0.210035
0.217072
0.221311
0.223755
0.225091
0.225766
0.226043
0.226047
0.225774
0.225102
0.223765
0.221313
0.217059
0.210002
0.198743
0.181426
0.15584
0.120564
0.0795852
0.0504521
0.0367769
0.029707
0.0296999
0.0367928
0.0504366
0.0796734
0.120696
0.155962
0.181522
0.198812
0.210045
0.217082
0.221322
0.223765
0.2251
0.225774
0.226051
0.226054
0.225782
0.22511
0.223773
0.221322
0.217069
0.210012
0.198753
0.181435
0.15585
0.120573
0.0795919
0.0504537
0.0367796
0.0297065
0.0293775
0.0365588
0.0497624
0.0785752
0.119039
0.154358
0.180122
0.197648
0.209107
0.216337
0.220733
0.223296
0.224716
0.225444
0.225748
0.225752
0.225455
0.224731
0.223311
0.220742
0.216334
0.209084
0.197601
0.180045
0.154254
0.11892
0.078496
0.0497811
0.0365476
0.0293841
0.0287374
0.0360952
0.0484392
0.076384
0.115688
0.15109
0.177236
0.195213
0.207101
0.214704
0.219404
0.222202
0.223791
0.224628
0.224987
0.224993
0.224646
0.223817
0.222231
0.219432
0.214722
0.207101
0.195188
0.17718
0.151
0.115575
0.0763078
0.0484625
0.0360878
0.0287437
0.0277875
0.0354134
0.0465052
0.0730685
0.110585
0.146048
0.172698
0.191292
0.203775
0.2119
0.217032
0.220168
0.222006
0.223007
0.223448
0.223457
0.223033
0.222047
0.220218
0.217085
0.211948
0.203808
0.191301
0.172673
0.145981
0.110479
0.0729799
0.0465439
0.0354114
0.0277936
0.0265402
0.0345198
0.0439584
0.0686705
0.103703
0.139069
0.166235
0.185527
0.198702
0.207447
0.213104
0.216664
0.218821
0.220037
0.220587
0.220599
0.220073
0.218878
0.216737
0.213186
0.20753
0.198775
0.185578
0.166253
0.139039
0.103621
0.0685941
0.0440214
0.0345248
0.026546
0.025011
0.0334117
0.0409703
0.0633908
0.0951352
0.129936
0.157441
0.17738
0.191234
0.200613
0.206832
0.210868
0.213402
0.214879
0.215564
0.215579
0.214924
0.213474
0.210963
0.206943
0.200732
0.191351
0.177483
0.157513
0.129957
0.0950901
0.0633333
0.0410536
0.0334245
0.0250167
0.0232186
0.0320586
0.037695
0.0574505
0.0853522
0.11829
0.14578
0.166095
0.180431
0.190327
0.197066
0.201589
0.204535
0.206312
0.207154
0.207172
0.206364
0.204619
0.201702
0.197203
0.190481
0.180594
0.166258
0.145925
0.11838
0.0853536
0.0574206
0.0377941
0.032079
0.023224
0.0211821
0.0303992
0.0343457
0.0511466
0.07532
0.104203
0.130634
0.150633
0.16497
0.175095
0.182212
0.187178
0.190549
0.192653
0.193671
0.193689
0.192706
0.190637
0.187299
0.182366
0.175279
0.165181
0.150871
0.130879
0.104411
0.075414
0.0511545
0.0344524
0.0304256
0.0211868
0.0189005
0.0283039
0.031111
0.0437481
0.0639243
0.0878712
0.11111
0.129607
0.143133
0.153009
0.160251
0.165543
0.169312
0.17175
0.172948
0.172964
0.171798
0.169392
0.165659
0.160407
0.153213
0.143388
0.129923
0.111497
0.0882415
0.0640821
0.0437919
0.0311965
0.0283308
0.0189034
0.0164226
0.0255796
0.0286789
0.0359601
0.0514386
0.0698356
0.0874846
0.102011
0.1136
0.122547
0.129445
0.134751
0.138769
0.141457
0.142783
0.142794
0.14149
0.13882
0.134833
0.129571
0.122737
0.113871
0.102368
0.0879542
0.070115
0.0515032
0.0359892
0.0287318
0.0255629
0.0164232
0.0137927
0.0221045
0.0264145
0.0295663
0.0384474
0.0511841
0.0628016
0.0722814
0.0800077
0.0863816
0.0916043
0.0958757
0.0994976
0.10202
0.103301
0.103305
0.102033
0.0995208
0.0959162
0.0916772
0.0865024
0.080188
0.0725092
0.0630371
0.0512235
0.0383713
0.0295842
0.0264382
0.0220712
0.0137891
0.0110532
0.0181409
0.0232881
0.0248914
0.0287464
0.0348373
0.0415801
0.0478693
0.0532587
0.0575939
0.061265
0.0643037
0.0666759
0.068294
0.0691123
0.0691124
0.0682944
0.0666785
0.0643147
0.0612859
0.0576294
0.0533114
0.0479205
0.0415882
0.0348003
0.0287763
0.0249141
0.02327
0.0180913
0.0110452
0.00827827
0.0130109
0.017305
0.0210822
0.0240758
0.0271818
0.0302295
0.0331823
0.0360124
0.0384779
0.0405679
0.0422714
0.0435868
0.0444761
0.0449275
0.0449357
0.0445008
0.0436297
0.0423514
0.0406728
0.0386005
0.0361439
0.033304
0.0303025
0.0272298
0.0241096
0.0211075
0.0172992
0.0129474
0.00826773
0.00487029
0.00250428
0.0106729
0.0159102
0.02097
0.0254884
0.0293671
0.0323805
0.0346729
0.036386
0.0376642
0.038609
0.0392876
0.0397307
0.039952
0.039957
0.0397456
0.0393118
0.0386422
0.0377049
0.0364329
0.0347238
0.032429
0.0293721
0.0254744
0.020949
0.0158918
0.0106651
0.00248693
0.00486278
0.00336234
0.00572009
0.00824087
0.0105698
0.0129123
0.0151279
0.0171614
0.0189012
0.020419
0.02174
0.0228507
0.0237448
0.0244115
0.0248567
0.0250798
0.0250799
0.0248571
0.024412
0.0237455
0.0228516
0.0217411
0.0204202
0.0189022
0.0171604
0.0151243
0.0129063
0.0105619
0.00823209
0.00571105
0.00335717
0.00333679
0.00565842
0.0081353
0.0104383
0.0127324
0.0148968
0.0168873
0.0185976
0.0200886
0.021378
0.02246
0.0233302
0.0239849
0.0244222
0.0246408
0.0246401
0.0244201
0.0239815
0.0233256
0.0224546
0.0213725
0.0200839
0.0185949
0.0168878
0.0149014
0.0127412
0.0104501
0.00814731
0.00567088
0.00334486
0.0048624
0.00307559
0.012049
0.0184764
0.0245391
0.0299533
0.0346796
0.0386412
0.0418588
0.0444376
0.0464678
0.0480228
0.0491523
0.0498884
0.0502501
0.0502465
0.0498782
0.049137
0.0480055
0.0464533
0.0444308
0.0418657
0.0386662
0.0347345
0.0300172
0.0245924
0.0185028
0.0120539
0.0031195
0.0048743
0.00820873
0.0143196
0.0196204
0.0252297
0.0301069
0.0346847
0.0388728
0.0424775
0.0452255
0.0473197
0.0488777
0.0500192
0.0508226
0.0513377
0.0515904
0.051591
0.0513397
0.0508273
0.0500313
0.0489053
0.0473583
0.0452787
0.0425284
0.0389221
0.0346924
0.0300538
0.0251512
0.0195945
0.0143642
0.00821952
0.010958
0.0206212
0.0275632
0.0308965
0.0338669
0.0369687
0.0400764
0.0432464
0.0464886
0.0498598
0.053009
0.0557553
0.057944
0.0594656
0.0602376
0.0602174
0.0594038
0.0578405
0.0556176
0.0528592
0.0497396
0.0465089
0.0432847
0.0401155
0.0370061
0.0337692
0.0308006
0.0275769
0.0206934
0.0109709
0.0136298
0.0258356
0.0327352
0.0354044
0.0378104
0.0436338
0.0512508
0.0584623
0.064947
0.0708123
0.0760459
0.0804561
0.0836735
0.0858294
0.0869158
0.0869131
0.0858195
0.083653
0.0804203
0.0759964
0.0707836
0.0649661
0.0585159
0.0513671
0.0440317
0.0379504
0.0353881
0.0327981
0.0259259
0.0136377
0.0161906
0.0305015
0.0366004
0.0386064
0.043495
0.0553374
0.0679502
0.0792225
0.0887103
0.0966699
0.103387
0.10892
0.113059
0.115834
0.117281
0.117285
0.115845
0.113079
0.108919
0.103339
0.096552
0.0885355
0.0790129
0.0677852
0.0554766
0.0437516
0.0386674
0.0367107
0.0305959
0.0161928
0.0185843
0.0345077
0.039501
0.0413149
0.0516825
0.0681143
0.0849413
0.100932
0.114978
0.126078
0.134647
0.141041
0.145574
0.148511
0.149971
0.149962
0.148483
0.145517
0.140945
0.134511
0.125865
0.114686
0.100589
0.0846441
0.0680009
0.0517662
0.0413826
0.0396132
0.0345716
0.0185814
0.0207869
0.0379507
0.0414456
0.0446867
0.0608235
0.0807914
0.101975
0.122473
0.138822
0.150827
0.159637
0.166013
0.170446
0.173257
0.174623
0.17461
0.173216
0.170375
0.165907
0.159492
0.150638
0.138582
0.122144
0.1017
0.0806629
0.0607848
0.0447274
0.0415066
0.0379812
0.0207804
0.0227712
0.0408853
0.0430299
0.0491975
0.069652
0.0925256
0.117962
0.140138
0.15692
0.169094
0.177797
0.183932
0.188105
0.190702
0.191945
0.191933
0.190664
0.188041
0.183842
0.177681
0.168953
0.156756
0.139951
0.117787
0.0924642
0.0696534
0.0490652
0.0430555
0.0408964
0.0227634
0.0245146
0.0433159
0.044424
0.0540312
0.0771637
0.103229
0.131287
0.153614
0.170219
0.182119
0.190494
0.196282
0.20014
0.2025
0.203615
0.203606
0.20247
0.200092
0.196216
0.190414
0.182027
0.17012
0.153515
0.131215
0.103232
0.0771684
0.0538839
0.0444403
0.0433175
0.0245066
0.0259977
0.0452767
0.0456598
0.0586485
0.0836969
0.11286
0.141563
0.163709
0.179848
0.191274
0.199209
0.204603
0.208134
0.210258
0.211251
0.211244
0.210238
0.208102
0.204561
0.199161
0.191225
0.179803
0.163678
0.141569
0.11292
0.0837297
0.0585411
0.0456696
0.0452708
0.0259896
0.0272045
0.0468028
0.0467217
0.0624659
0.0889768
0.12052
0.149318
0.171073
0.186677
0.197588
0.205067
0.210073
0.213295
0.215204
0.216087
0.216083
0.215192
0.213277
0.210052
0.205047
0.197574
0.186676
0.171096
0.149379
0.120625
0.0890561
0.0624551
0.046728
0.0467918
0.0271963
0.0281221
0.0479291
0.047626
0.0653143
0.0928792
0.126094
0.154838
0.176195
0.191321
0.201779
0.208859
0.213531
0.216493
0.218223
0.219016
0.219014
0.218217
0.216486
0.213526
0.20886
0.201792
0.191354
0.176255
0.154934
0.126221
0.0929785
0.0653281
0.0476308
0.0479151
0.0281137
0.0287405
0.0486779
0.0483721
0.067263