/*--------------------------------*- C++ -*----------------------------------*\
| =========                 |                                                 |
| \\      /  F ield         | OpenFOAM: The Open Source CFD Toolbox           |
|  \\    /   O peration     | Version:  2312                                  |
|   \\  /    A nd           | Website:  www.openfoam.com                      |
|    \\/     M anipulation  |                                                 |
\*---------------------------------------------------------------------------*/
FoamFile
{
    version     2.0;
    format      ascii;
    arch        "LSB;label=32;scalar=64";
    class       volScalarField;
    location    "950";
    object      epsilon;
}
// * * * * * * * * * * * * * * * * * * * * * * * * * * * * * * * * * * * * * //

dimensions      [0 2 -3 0 0 0 0];

internalField   nonuniform List<scalar> 
27000
(
0.00152496
0.000224652
0.000111022
7.03176e-05
5.22682e-05
4.19836e-05
3.52706e-05
3.06202e-05
2.7276e-05
2.48282e-05
2.30289e-05
2.17217e-05
2.07981e-05
2.02065e-05
1.99192e-05
1.99203e-05
2.02098e-05
2.08033e-05
2.17274e-05
2.30359e-05
2.48365e-05
2.72848e-05
3.06281e-05
3.52747e-05
4.19777e-05
5.22383e-05
7.02295e-05
0.000110786
0.000224024
0.0015209
0.000150542
3.24502e-05
1.39014e-05
9.32727e-06
7.21682e-06
5.9949e-06
5.16304e-06
4.55452e-06
4.09805e-06
3.75611e-06
3.50225e-06
3.31704e-06
3.18622e-06
3.10209e-06
3.06085e-06
3.06058e-06
3.10124e-06
3.18461e-06
3.31429e-06
3.49811e-06
3.75019e-06
4.08983e-06
4.5434e-06
5.14834e-06
5.97592e-06
7.19158e-06
9.28895e-06
1.38337e-05
3.232e-05
0.000150174
0.000100023
1.5301e-05
5.13605e-06
2.57189e-06
1.92217e-06
1.63422e-06
1.45348e-06
1.32348e-06
1.22518e-06
1.15031e-06
1.09387e-06
1.05222e-06
1.0227e-06
1.00362e-06
9.94144e-07
9.9389e-07
1.00284e-06
1.02133e-06
1.05017e-06
1.09099e-06
1.14657e-06
1.22057e-06
1.3181e-06
1.44777e-06
1.62879e-06
1.91622e-06
2.56029e-06
5.09734e-06
1.5209e-05
9.98259e-05
6.66502e-05
1.02848e-05
2.84844e-06
1.3985e-06
1.00095e-06
8.57638e-07
7.83352e-07
7.34199e-07
6.9824e-07
6.71213e-07
6.50715e-07
6.35503e-07
6.24697e-07
6.1771e-07
6.1421e-07
6.14049e-07
6.17225e-07
6.23883e-07
6.34358e-07
6.49265e-07
6.69557e-07
6.96491e-07
7.32589e-07
7.82224e-07
8.57128e-07
1.00019e-06
1.39411e-06
2.83046e-06
1.02317e-05
6.65848e-05
4.92626e-05
7.26949e-06
2.05426e-06
1.04595e-06
7.53844e-07
6.44271e-07
5.93961e-07
5.64884e-07
5.45559e-07
5.32758e-07
5.23149e-07
5.15971e-07
5.10859e-07
5.07553e-07
5.0589e-07
5.05792e-07
5.07263e-07
5.10395e-07
5.15377e-07
5.22515e-07
5.32272e-07
5.4519e-07
5.64758e-07
5.94199e-07
6.44705e-07
7.53723e-07
1.04334e-06
2.04411e-06
7.24212e-06
4.9251e-05
3.8695e-05
5.62552e-06
1.63554e-06
8.80543e-07
6.53034e-07
5.63433e-07
5.23776e-07
5.02931e-07
4.9044e-07
4.82431e-07
4.76927e-07
4.73013e-07
4.70285e-07
4.68538e-07
4.67662e-07
4.67608e-07
4.68386e-07
4.7006e-07
4.72764e-07
4.76727e-07
4.82362e-07
4.90544e-07
5.03245e-07
5.24232e-07
5.63719e-07
6.52724e-07
8.78403e-07
1.62879e-06
5.61029e-06
3.87051e-05
3.17041e-05
4.60793e-06
1.39187e-06
7.83426e-07
5.98605e-07
5.25673e-07
4.92745e-07
4.7645e-07
4.67533e-07
4.62208e-07
4.58788e-07
4.56484e-07
4.5493e-07
4.53952e-07
4.53468e-07
4.53446e-07
4.53894e-07
4.54858e-07
4.56435e-07
4.5881e-07
4.62343e-07
4.67798e-07
4.76818e-07
4.93099e-07
5.25768e-07
5.9806e-07
7.81405e-07
1.38674e-06
4.59932e-06
3.17229e-05
2.68356e-05
3.92249e-06
1.23227e-06
7.20213e-07
5.63522e-07
5.0362e-07
4.76791e-07
4.63968e-07
4.57419e-07
4.53795e-07
4.51615e-07
4.50213e-07
4.49294e-07
4.48724e-07
4.48447e-07
4.48444e-07
4.4872e-07
4.49305e-07
4.50263e-07
4.51727e-07
4.53985e-07
4.57675e-07
4.64237e-07
4.7696e-07
5.03507e-07
5.62904e-07
7.1842e-07
1.22853e-06
3.91806e-06
2.68584e-05
2.32687e-05
3.42979e-06
1.11782e-06
6.75835e-07
5.39801e-07
4.89509e-07
4.67567e-07
4.57505e-07
4.52688e-07
4.50222e-07
4.48834e-07
4.47977e-07
4.47422e-07
4.47079e-07
4.46915e-07
4.46922e-07
4.47101e-07
4.47468e-07
4.48058e-07
4.48958e-07
4.50384e-07
4.52864e-07
4.57637e-07
4.67561e-07
4.89244e-07
5.39156e-07
6.74361e-07
1.11531e-06
3.42857e-06
2.32965e-05
2.06635e-05
3.06904e-06
1.03273e-06
6.43553e-07
5.25384e-07
4.80615e-07
4.61984e-07
4.53913e-07
4.50325e-07
4.48645e-07
4.47771e-07
4.47251e-07
4.46915e-07
4.46705e-07
4.46605e-07
4.46614e-07
4.46733e-07
4.46965e-07
4.47325e-07
4.47866e-07
4.48747e-07
4.50405e-07
4.53919e-07
4.61845e-07
4.80244e-07
5.24678e-07
6.42399e-07
1.03116e-06
3.06969e-06
2.06902e-05
1.87598e-05
2.80481e-06
9.6917e-07
6.19062e-07
5.13817e-07
4.74386e-07
4.5839e-07
4.51785e-07
4.49056e-07
4.47898e-07
4.47351e-07
4.47042e-07
4.46841e-07
4.46712e-07
4.4665e-07
4.46658e-07
4.46736e-07
4.4688e-07
4.47093e-07
4.47405e-07
4.47937e-07
4.49053e-07
4.51699e-07
4.58172e-07
4.73983e-07
5.13189e-07
6.18215e-07
9.68272e-07
2.80653e-06
1.87849e-05
1.73872e-05
2.61389e-06
9.22574e-07
6.00936e-07
5.05161e-07
4.69904e-07
4.55977e-07
4.50462e-07
4.48329e-07
4.47511e-07
4.47169e-07
4.4699e-07
4.46872e-07
4.46793e-07
4.46755e-07
4.46761e-07
4.46809e-07
4.46895e-07
4.47014e-07
4.47183e-07
4.47498e-07
4.48267e-07
4.50321e-07
4.55727e-07
4.6952e-07
5.04644e-07
6.00346e-07
9.22134e-07
2.61622e-06
1.74109e-05
1.64356e-05
2.48126e-06
8.8984e-07
5.87994e-07
4.99036e-07
4.66804e-07
4.5438e-07
4.49635e-07
4.47902e-07
4.47299e-07
4.4708e-07
4.46979e-07
4.46911e-07
4.46864e-07
4.4684e-07
4.46843e-07
4.46872e-07
4.46919e-07
4.4698e-07
4.47063e-07
4.47249e-07
4.47803e-07
4.49466e-07
4.54126e-07
4.66459e-07
4.98629e-07
5.87655e-07
8.89706e-07
2.48397e-06
1.64585e-05
1.58349e-05
2.3974e-06
8.68972e-07
5.79608e-07
4.95115e-07
4.64856e-07
4.53407e-07
4.49152e-07
4.47664e-07
4.47186e-07
4.47037e-07
4.46978e-07
4.4694e-07
4.4691e-07
4.46895e-07
4.46895e-07
4.46912e-07
4.46937e-07
4.46963e-07
4.47e-07
4.47115e-07
4.47545e-07
4.48972e-07
4.53159e-07
4.64545e-07
4.94778e-07
5.79375e-07
8.69006e-07
2.4003e-06
1.58573e-05
1.55434e-05
2.35662e-06
8.58782e-07
5.75499e-07
4.93202e-07
4.63919e-07
4.5295e-07
4.48933e-07
4.47562e-07
4.47141e-07
4.47023e-07
4.46983e-07
4.46957e-07
4.46935e-07
4.46923e-07
4.46923e-07
4.46933e-07
4.46948e-07
4.4696e-07
4.46977e-07
4.47061e-07
4.47437e-07
4.48753e-07
4.52711e-07
4.6363e-07
4.92902e-07
5.75314e-07
8.58895e-07
2.35962e-06
1.55657e-05
1.55416e-05
2.35626e-06
8.58689e-07
5.7547e-07
4.93193e-07
4.63919e-07
4.52956e-07
4.48942e-07
4.47572e-07
4.47152e-07
4.47033e-07
4.46992e-07
4.46965e-07
4.46943e-07
4.4693e-07
4.4693e-07
4.46941e-07
4.46956e-07
4.4697e-07
4.46989e-07
4.47074e-07
4.47452e-07
4.48768e-07
4.52726e-07
4.63642e-07
4.92905e-07
5.75296e-07
8.58815e-07
2.35927e-06
1.55639e-05
1.58294e-05
2.3963e-06
8.68685e-07
5.79517e-07
4.95085e-07
4.64856e-07
4.53424e-07
4.49178e-07
4.47695e-07
4.47217e-07
4.47066e-07
4.47004e-07
4.46963e-07
4.46931e-07
4.46914e-07
4.46915e-07
4.46933e-07
4.46961e-07
4.46992e-07
4.47034e-07
4.47154e-07
4.47589e-07
4.49019e-07
4.53204e-07
4.6458e-07
4.94786e-07
5.7932e-07
8.68761e-07
2.39925e-06
1.58519e-05
1.64263e-05
2.47935e-06
8.89329e-07
5.87826e-07
4.98975e-07
4.66798e-07
4.54406e-07
4.49677e-07
4.47952e-07
4.47349e-07
4.47127e-07
4.4702e-07
4.46948e-07
4.46896e-07
4.4687e-07
4.46873e-07
4.46904e-07
4.46957e-07
4.47024e-07
4.47116e-07
4.47311e-07
4.47872e-07
4.49541e-07
4.54199e-07
4.66515e-07
4.98641e-07
5.8756e-07
8.89285e-07
2.48215e-06
1.64491e-05
1.73739e-05
2.61106e-06
9.21784e-07
6.00647e-07
5.05051e-07
4.69883e-07
4.56006e-07
4.50517e-07
4.48395e-07
4.47577e-07
4.47231e-07
4.47043e-07
4.46918e-07
4.46833e-07
4.46792e-07
4.46797e-07
4.4685e-07
4.46942e-07
4.4707e-07
4.4725e-07
4.47577e-07
4.48357e-07
4.50419e-07
4.55824e-07
4.69596e-07
5.04657e-07
6.00201e-07
9.21515e-07
2.61355e-06
1.73972e-05
1.87423e-05
2.80088e-06
9.6802e-07
6.18622e-07
5.13639e-07
4.74339e-07
4.58415e-07
4.51847e-07
4.49133e-07
4.47975e-07
4.47421e-07
4.47101e-07
4.46889e-07
4.46753e-07
4.46687e-07
4.46696e-07
4.46778e-07
4.4693e-07
4.47154e-07
4.47478e-07
4.48025e-07
4.49154e-07
4.5181e-07
4.58281e-07
4.74066e-07
5.13194e-07
6.1801e-07
9.67421e-07
2.80285e-06
1.87661e-05
2.06413e-05
3.06373e-06
1.0311e-06
6.42911e-07
5.25117e-07
4.8053e-07
4.61995e-07
4.53972e-07
4.50403e-07
4.48721e-07
4.47836e-07
4.47303e-07
4.46955e-07
4.46737e-07
4.46634e-07
4.46644e-07
4.46768e-07
4.47009e-07
4.47381e-07
4.47934e-07
4.4883e-07
4.505e-07
4.54022e-07
4.61944e-07
4.80311e-07
5.2465e-07
6.42109e-07
1.03003e-06
3.06483e-06
2.06654e-05
2.32409e-05
3.4227e-06
1.11555e-06
6.74926e-07
5.39431e-07
4.89367e-07
4.67548e-07
4.57545e-07
4.52748e-07
4.50278e-07
4.48876e-07
4.48002e-07
4.47435e-07
4.47085e-07
4.4692e-07
4.4693e-07
4.47116e-07
4.47492e-07
4.48092e-07
4.49004e-07
4.50441e-07
4.52929e-07
4.57704e-07
4.67615e-07
4.89253e-07
5.39041e-07
6.7393e-07
1.11382e-06
3.42237e-06
2.32647e-05
2.68013e-05
3.91313e-06
1.22912e-06
7.18944e-07
5.62988e-07
5.03384e-07
4.76709e-07
4.63954e-07
4.57425e-07
4.53795e-07
4.51598e-07
4.50181e-07
4.49251e-07
4.48678e-07
4.48405e-07
4.48409e-07
4.48694e-07
4.49288e-07
4.50254e-07
4.51725e-07
4.53986e-07
4.57674e-07
4.64225e-07
4.76918e-07
5.03398e-07
5.62631e-07
7.17731e-07
1.22649e-06
3.9104e-06
2.68231e-05
3.16671e-05
4.59558e-06
1.38748e-06
7.8166e-07
5.97799e-07
5.25278e-07
4.92541e-07
4.76321e-07
4.67422e-07
4.62092e-07
4.58656e-07
4.56339e-07
4.54782e-07
4.53811e-07
4.53339e-07
4.53331e-07
4.53791e-07
4.54764e-07
4.56346e-07
4.58719e-07
4.62244e-07
4.67681e-07
4.76666e-07
4.92888e-07
5.2545e-07
5.97512e-07
7.80275e-07
1.38371e-06
4.58897e-06
3.16802e-05
3.86465e-05
5.60785e-06
1.62935e-06
8.78057e-07
6.5184e-07
5.62778e-07
5.23331e-07
5.02567e-07
4.901e-07
4.82105e-07
4.76583e-07
4.72666e-07
4.69953e-07
4.68229e-07
4.67378e-07
4.67348e-07
4.68143e-07
4.69826e-07
4.72528e-07
4.76476e-07
4.82087e-07
4.9023e-07
5.02862e-07
5.23738e-07
5.63064e-07
6.51714e-07
8.76562e-07
1.62425e-06
5.59571e-06
3.86496e-05
4.91938e-05
7.24327e-06
2.04472e-06
1.04209e-06
7.51918e-07
6.43077e-07
5.93007e-07
5.64047e-07
5.4479e-07
5.3208e-07
5.22406e-07
5.15259e-07
5.10198e-07
5.06943e-07
5.05323e-07
5.05259e-07
5.06754e-07
5.09894e-07
5.14863e-07
5.21962e-07
5.31663e-07
5.44525e-07
5.63977e-07
5.93211e-07
6.43424e-07
7.51869e-07
1.04016e-06
2.03682e-06
7.22101e-06
4.91764e-05
6.65432e-05
1.0243e-05
2.83198e-06
1.39174e-06
9.97431e-07
8.55085e-07
7.81034e-07
7.32029e-07
6.96266e-07
6.69446e-07
6.49115e-07
6.34068e-07
6.23385e-07
6.16486e-07
6.13052e-07
6.12937e-07
6.1614e-07
6.22801e-07
6.3324e-07
6.48061e-07
6.68213e-07
6.94955e-07
7.30803e-07
7.80124e-07
8.54563e-07
9.96678e-07
1.38818e-06
2.81755e-06
1.02002e-05
6.64787e-05
9.9845e-05
1.52409e-05
5.10393e-06
2.55809e-06
1.9135e-06
1.62713e-06
1.44703e-06
1.31778e-06
1.22027e-06
1.14607e-06
1.09017e-06
1.04896e-06
1.01965e-06
1.00071e-06
9.91332e-07
9.91127e-07
1.00009e-06
1.01856e-06
1.0473e-06
1.08788e-06
1.14309e-06
1.21657e-06
1.31342e-06
1.44229e-06
1.62232e-06
1.90796e-06
2.54798e-06
5.07176e-06
1.5165e-05
9.96752e-05
0.000150243
3.2366e-05
1.385e-05
9.29237e-06
7.19029e-06
5.97308e-06
5.14465e-06
4.53897e-06
4.08474e-06
3.74452e-06
3.49192e-06
3.30754e-06
3.17675e-06
3.0927e-06
3.05152e-06
3.0512e-06
3.0917e-06
3.17493e-06
3.30465e-06
3.48774e-06
3.73869e-06
4.07679e-06
4.52834e-06
5.13066e-06
5.95501e-06
7.16593e-06
9.25729e-06
1.37919e-05
3.22552e-05
0.000149932
0.00152225
0.000224219
0.000110828
7.02134e-05
5.21999e-05
4.1933e-05
3.52302e-05
3.0586e-05
2.72456e-05
2.48001e-05
2.30021e-05
2.16949e-05
2.07664e-05
2.01739e-05
1.98862e-05
1.98865e-05
2.0175e-05
2.0768e-05
2.16965e-05
2.30038e-05
2.48016e-05
2.72461e-05
3.0584e-05
3.52231e-05
4.19157e-05
5.21606e-05
7.01242e-05
0.000110613
0.000223663
0.00151873
0.00112731
0.000169293
8.88917e-05
5.85388e-05
4.525e-05
3.75123e-05
3.23946e-05
2.88183e-05
2.62068e-05
2.42274e-05
2.27509e-05
2.16709e-05
2.09361e-05
2.04799e-05
2.02584e-05
2.02573e-05
2.04766e-05
2.09309e-05
2.16663e-05
2.27447e-05
2.42186e-05
2.61923e-05
2.88016e-05
3.23892e-05
3.75355e-05
4.53268e-05
5.87262e-05
8.9333e-05
0.000170474
0.00113495
0.000107769
3.11318e-05
2.04705e-05
1.43991e-05
1.15173e-05
9.64437e-06
8.26433e-06
7.25291e-06
6.48502e-06
5.89895e-06
5.4589e-06
5.13861e-06
4.91836e-06
4.78142e-06
4.7159e-06
4.71647e-06
4.7833e-06
4.92211e-06
5.14531e-06
5.46958e-06
5.91441e-06
6.50718e-06
7.28653e-06
8.31975e-06
9.71817e-06
1.16059e-05
1.4508e-05
2.06102e-05
3.14558e-05
0.000108499
8.42542e-05
2.24047e-05
1.13919e-05
5.82756e-06
3.74269e-06
2.89294e-06
2.42245e-06
2.10123e-06
1.8663e-06
1.69143e-06
1.56263e-06
1.471e-06
1.40818e-06
1.36914e-06
1.35063e-06
1.35109e-06
1.3706e-06
1.41083e-06
1.47536e-06
1.57043e-06
1.70247e-06
1.88109e-06
2.12035e-06
2.4446e-06
2.91179e-06
3.75726e-06
5.84916e-06
1.14704e-05
2.26224e-05
8.4677e-05
5.76693e-05
1.63357e-05
6.54811e-06
2.80699e-06
1.56326e-06
1.15303e-06
9.82597e-07
8.84545e-07
8.15407e-07
7.63446e-07
7.24375e-07
6.95758e-07
6.75858e-07
6.6335e-07
6.5741e-07
6.57647e-07
6.64081e-07
6.7714e-07
6.97694e-07
7.27085e-07
7.66825e-07
8.19277e-07
8.8827e-07
9.84656e-07
1.15137e-06
1.55853e-06
2.8108e-06
6.60227e-06
1.64822e-05
5.78087e-05
4.44499e-05
1.16259e-05
4.12972e-06
1.68727e-06
9.5058e-07
7.00654e-07
6.03556e-07
5.56677e-07
5.27427e-07
5.05186e-07
4.88792e-07
4.76881e-07
4.68924e-07
4.63968e-07
4.61644e-07
4.61816e-07
4.64485e-07
4.69781e-07
4.78043e-07
4.90128e-07
5.06419e-07
5.28406e-07
5.56869e-07
6.02372e-07
6.97726e-07
9.47041e-07
1.68939e-06
4.1631e-06
1.17106e-05
4.44731e-05
3.6326e-05
8.78298e-06
2.85238e-06
1.20705e-06
7.20814e-07
5.46052e-07
4.7119e-07
4.38065e-07
4.21364e-07
4.10875e-07
4.03496e-07
3.98198e-07
3.94582e-07
3.92337e-07
3.91294e-07
3.91393e-07
3.92625e-07
3.95028e-07
3.9873e-07
4.03983e-07
4.11121e-07
4.21144e-07
4.37144e-07
4.6969e-07
5.44194e-07
7.19677e-07
1.21061e-06
2.8769e-06
8.83672e-06
3.63056e-05
3.07831e-05
7.00018e-06
2.14785e-06
9.57931e-07
6.09387e-07
4.74499e-07
4.16669e-07
3.90308e-07
3.7761e-07
3.70865e-07
3.66821e-07
3.64192e-07
3.62473e-07
3.61431e-07
3.60954e-07
3.61001e-07
3.61561e-07
3.62651e-07
3.64349e-07
3.66853e-07
3.70643e-07
3.77017e-07
3.89321e-07
4.15492e-07
4.73724e-07
6.09792e-07
9.62064e-07
2.16513e-06
7.02395e-06
3.07554e-05
2.68494e-05
5.84936e-06
1.73974e-06
8.1468e-07
5.44913e-07
4.37535e-07
3.90554e-07
3.68383e-07
3.57706e-07
3.52465e-07
3.49775e-07
3.48302e-07
3.4746e-07
3.46991e-07
3.46785e-07
3.468e-07
3.47025e-07
3.47484e-07
3.48265e-07
3.49611e-07
3.52112e-07
3.57141e-07
3.67684e-07
3.89961e-07
4.37488e-07
5.46064e-07
8.18301e-07
1.751e-06
5.86106e-06
2.68223e-05
2.41195e-05
5.07974e-06
1.49034e-06
7.26958e-07
5.04144e-07
4.1584e-07
3.76345e-07
3.57366e-07
3.48145e-07
3.43739e-07
3.41674e-07
3.40717e-07
3.40273e-07
3.4007e-07
3.3999e-07
3.39987e-07
3.40054e-07
3.40224e-07
3.40605e-07
3.41469e-07
3.43425e-07
3.47756e-07
3.5701e-07
3.76235e-07
4.16281e-07
5.05456e-07
7.29751e-07
1.49755e-06
5.08443e-06
2.40862e-05
2.20971e-05
4.54591e-06
1.32884e-06
6.69599e-07
4.75448e-07
4.01376e-07
3.67687e-07
3.51333e-07
3.43339e-07
3.39542e-07
3.37831e-07
3.37112e-07
3.36838e-07
3.36746e-07
3.36717e-07
3.36707e-07
3.36711e-07
3.36768e-07
3.36994e-07
3.37659e-07
3.39331e-07
3.43141e-07
3.51254e-07
3.67889e-07
4.02066e-07
4.76841e-07
6.71654e-07
1.33335e-06
4.54671e-06
2.20673e-05
2.05901e-05
4.16768e-06
1.21997e-06
6.30819e-07
4.57495e-07
3.91703e-07
3.62069e-07
3.47761e-07
3.40788e-07
3.37486e-07
3.36014e-07
3.35416e-07
3.35208e-07
3.35151e-07
3.35138e-07
3.35127e-07
3.35116e-07
3.35145e-07
3.35324e-07
3.35901e-07
3.3738e-07
3.40741e-07
3.4786e-07
3.62426e-07
3.92443e-07
4.587e-07
6.32285e-07
1.22273e-06
4.16641e-06
2.05636e-05
1.94848e-05
3.90048e-06
1.14546e-06
6.03971e-07
4.45212e-07
3.85096e-07
3.58298e-07
3.45516e-07
3.39346e-07
3.36441e-07
3.35145e-07
3.34617e-07
3.34431e-07
3.34378e-07
3.34366e-07
3.34356e-07
3.34351e-07
3.34386e-07
3.3456e-07
3.3509e-07
3.36417e-07
3.39399e-07
3.45711e-07
3.58709e-07
3.85793e-07
4.46215e-07
6.05053e-07
1.14715e-06
3.89805e-06
1.94605e-05
1.87082e-05
3.7176e-06
1.09535e-06
5.85549e-07
4.36773e-07
3.80581e-07
3.5576e-07
3.44067e-07
3.38489e-07
3.35882e-07
3.34717e-07
3.34233e-07
3.34052e-07
3.33994e-07
3.33978e-07
3.33972e-07
3.33977e-07
3.34027e-07
3.34208e-07
3.34707e-07
3.35914e-07
3.38601e-07
3.44306e-07
3.56178e-07
3.81221e-07
4.37642e-07
5.86497e-07
1.09642e-06
3.71455e-06
1.86852e-05
1.82137e-05
3.60311e-06
1.06428e-06
5.73886e-07
4.31407e-07
3.77717e-07
3.54163e-07
3.43175e-07
3.37986e-07
3.35577e-07
3.345e-07
3.34043e-07
3.33864e-07
3.338e-07
3.3378e-07
3.33777e-07
3.33792e-07
3.33855e-07
3.34042e-07
3.34521e-07
3.35644e-07
3.38129e-07
3.43431e-07
3.54571e-07
3.78307e-07
4.32179e-07
5.74687e-07
1.06504e-06
3.59979e-06
1.81914e-05
1.79736e-05
3.54805e-06
1.04942e-06
5.68258e-07
4.28791e-07
3.76313e-07
3.53379e-07
3.42738e-07
3.37742e-07
3.35432e-07
3.34398e-07
3.33955e-07
3.33776e-07
3.33709e-07
3.33686e-07
3.33685e-07
3.33706e-07
3.33777e-07
3.33968e-07
3.34436e-07
3.35516e-07
3.37898e-07
3.42998e-07
3.53775e-07
3.76871e-07
4.29508e-07
5.68985e-07
1.05004e-06
3.54464e-06
1.79515e-05
1.7975e-05
3.54839e-06
1.04948e-06
5.68258e-07
4.28776e-07
3.76294e-07
3.53359e-07
3.42718e-07
3.37722e-07
3.35412e-07
3.34378e-07
3.33935e-07
3.33755e-07
3.33688e-07
3.33666e-07
3.33666e-07
3.33688e-07
3.33759e-07
3.33951e-07
3.34419e-07
3.35498e-07
3.37879e-07
3.42976e-07
3.5375e-07
3.76843e-07
4.29481e-07
5.68976e-07
1.0501e-06
3.54499e-06
1.79528e-05
1.82178e-05
3.60417e-06
1.06448e-06
5.73891e-07
4.31366e-07
3.77662e-07
3.54104e-07
3.43115e-07
3.37926e-07
3.35516e-07
3.34438e-07
3.33981e-07
3.33801e-07
3.33738e-07
3.33718e-07
3.33717e-07
3.33735e-07
3.33801e-07
3.3399e-07
3.3447e-07
3.35591e-07
3.38071e-07
3.43364e-07
3.54492e-07
3.7822e-07
4.32098e-07
5.74661e-07
1.06521e-06
3.60088e-06
1.81953e-05
1.87152e-05
3.71952e-06
1.09575e-06
5.85579e-07
4.36712e-07
3.80492e-07
3.55661e-07
3.43962e-07
3.38383e-07
3.35775e-07
3.3461e-07
3.34126e-07
3.33946e-07
3.33889e-07
3.33874e-07
3.33871e-07
3.33881e-07
3.33935e-07
3.34119e-07
3.3462e-07
3.35823e-07
3.38501e-07
3.4419e-07
3.56042e-07
3.81068e-07
4.37497e-07
5.86448e-07
1.09673e-06
3.71647e-06
1.86919e-05
1.94948e-05
3.90348e-06
1.14621e-06
6.04036e-07
4.45142e-07
3.84975e-07
3.58153e-07
3.45359e-07
3.39186e-07
3.36282e-07
3.3499e-07
3.34465e-07
3.3428e-07
3.3423e-07
3.3422e-07
3.34214e-07
3.34213e-07
3.34253e-07
3.34432e-07
3.34962e-07
3.36283e-07
3.39252e-07
3.45539e-07
3.58508e-07
3.85566e-07
4.45994e-07
6.04973e-07
1.14764e-06
3.90095e-06
1.94705e-05
2.06033e-05
4.17209e-06
1.22127e-06
6.3099e-07
4.57443e-07
3.91554e-07
3.6187e-07
3.47541e-07
3.40564e-07
3.37269e-07
3.35806e-07
3.35217e-07
3.35014e-07
3.34962e-07
3.34951e-07
3.34943e-07
3.34936e-07
3.3497e-07
3.35152e-07
3.35728e-07
3.37199e-07
3.40542e-07
3.4763e-07
3.62157e-07
3.92138e-07
4.58399e-07
6.32178e-07
1.22347e-06
4.17053e-06
2.05775e-05
2.21139e-05
4.55224e-06
1.33101e-06
6.69966e-07
4.75443e-07
4.01194e-07
3.67418e-07
3.51033e-07
3.43041e-07
3.39262e-07
3.37572e-07
3.36871e-07
3.36608e-07
3.36521e-07
3.36495e-07
3.36486e-07
3.36492e-07
3.36551e-07
3.36778e-07
3.37438e-07
3.391e-07
3.42888e-07
3.50965e-07
3.67556e-07
4.01694e-07
4.76476e-07
6.7153e-07
1.33443e-06
4.55236e-06
2.20863e-05
2.41405e-05
5.08882e-06
1.49388e-06
7.27648e-07
5.04215e-07
4.15605e-07
3.75981e-07
3.56969e-07
3.47769e-07
3.43403e-07
3.41379e-07
3.4045e-07
3.40021e-07
3.39824e-07
3.39743e-07
3.39737e-07
3.39801e-07
3.39969e-07
3.40346e-07
3.41202e-07
3.43145e-07
3.47451e-07
3.56669e-07
3.7585e-07
4.15869e-07
5.05133e-07
7.29677e-07
1.49917e-06
5.09185e-06
2.41111e-05
2.68753e-05
5.86255e-06
1.74559e-06
8.1587e-07
5.45021e-07
4.372e-07
3.9007e-07
3.67892e-07
3.57275e-07
3.52108e-07
3.49479e-07
3.48044e-07
3.47217e-07
3.46747e-07
3.46533e-07
3.46537e-07
3.46752e-07
3.47201e-07
3.47973e-07
3.49308e-07
3.51792e-07
3.56796e-07
3.67304e-07
3.89543e-07
4.37052e-07
5.45763e-07
8.18434e-07
1.75383e-06
5.871e-06
2.68452e-05
3.08043e-05
7.02184e-06
2.15792e-06
9.59776e-07
6.09412e-07
4.74089e-07
4.16092e-07
3.89781e-07
3.77202e-07
3.70566e-07
3.66598e-07
3.64004e-07
3.62287e-07
3.61228e-07
3.60728e-07
3.60751e-07
3.6129e-07
3.62363e-07
3.64048e-07
3.66539e-07
3.70311e-07
3.76662e-07
3.8894e-07
4.15093e-07
4.73366e-07
6.09541e-07
9.62655e-07
2.17083e-06
7.04123e-06
3.07831e-05
3.63808e-05
8.82738e-06
2.86808e-06
1.20949e-06
7.207e-07
5.45515e-07
4.70694e-07
4.3768e-07
4.21163e-07
4.10786e-07
4.03475e-07
3.98179e-07
3.94529e-07
3.92236e-07
3.91144e-07
3.91199e-07
3.92396e-07
3.94773e-07
3.98463e-07
4.03715e-07
4.10844e-07
4.20851e-07
4.36837e-07
4.69417e-07
5.43931e-07
7.19565e-07
1.21179e-06
2.88671e-06
8.87145e-06
3.63707e-05
4.45419e-05
1.16838e-05
4.1516e-06
1.69112e-06
9.50612e-07
7.00153e-07
6.03395e-07
5.56912e-07
5.27812e-07
5.05529e-07
4.89204e-07
4.77186e-07
4.69118e-07
4.64063e-07
4.61655e-07
4.61758e-07
4.64373e-07
4.69634e-07
4.77892e-07
4.90041e-07
5.06369e-07
5.28372e-07
5.56861e-07
6.02305e-07
6.97688e-07
9.47519e-07
1.69214e-06
4.17714e-06
1.1753e-05
4.4571e-05
5.78308e-05
1.64209e-05
6.5861e-06
2.81725e-06
1.56481e-06
1.15417e-06
9.84569e-07
8.86723e-07
8.17282e-07
7.6493e-07
7.25532e-07
6.96558e-07
6.76431e-07
6.63768e-07
6.57715e-07
6.57871e-07
6.64245e-07
6.77277e-07
6.97873e-07
7.27323e-07
7.67195e-07
8.19897e-07
8.89233e-07
9.85792e-07
1.15252e-06
1.56063e-06
2.81936e-06
6.62801e-06
1.6539e-05
5.79564e-05
8.4546e-05
2.25151e-05
1.14409e-05
5.84725e-06
3.7565e-06
2.90681e-06
2.43677e-06
2.11275e-06
1.8749e-06
1.69787e-06
1.56738e-06
1.47376e-06
1.4104e-06
1.37105e-06
1.35232e-06
1.35266e-06
1.3721e-06
1.41235e-06
1.47764e-06
1.57316e-06
1.7059e-06
1.88576e-06
2.12705e-06
2.4534e-06
2.92074e-06
3.76701e-06
5.86316e-06
1.15023e-05
2.26862e-05
8.48875e-05
0.000108222
3.12815e-05
2.05429e-05
1.44608e-05
1.15735e-05
9.69422e-06
8.30319e-06
7.2789e-06
6.50382e-06
5.91341e-06
5.47055e-06
5.1481e-06
4.92753e-06
4.79038e-06
4.7247e-06
4.72527e-06
4.79221e-06
4.93107e-06
5.15412e-06
5.4795e-06
5.92629e-06
6.52251e-06
7.30737e-06
8.3506e-06
9.75335e-06
1.16437e-05
1.45467e-05
2.06546e-05
3.15418e-05
0.000108841
0.00113155
0.000169934
8.91734e-05
5.86923e-05
4.53479e-05
3.75781e-05
3.2439e-05
2.88496e-05
2.62252e-05
2.42424e-05
2.2765e-05
2.16857e-05
2.09611e-05
2.05062e-05
2.02852e-05
2.02848e-05
2.05051e-05
2.09593e-05
2.16841e-05
2.27628e-05
2.42396e-05
2.62221e-05
2.88477e-05
3.24503e-05
3.7615e-05
4.54289e-05
5.88624e-05
8.95464e-05
0.000170884
0.00113782
0.000944066
0.000139978
7.58119e-05
5.12624e-05
4.04466e-05
3.39944e-05
2.95815e-05
2.63969e-05
2.40556e-05
2.23534e-05
2.10921e-05
2.0169e-05
1.95104e-05
1.90862e-05
1.88797e-05
1.888e-05
1.90872e-05
1.9512e-05
2.01701e-05
2.1094e-05
2.23565e-05
2.40626e-05
2.64052e-05
2.95785e-05
3.39649e-05
4.03703e-05
5.11007e-05
7.54708e-05
0.00013905
0.00093782
9.19382e-05
3.33567e-05
2.20166e-05
1.65993e-05
1.40431e-05
1.25231e-05
1.13684e-05
1.03648e-05
9.48003e-06
8.73447e-06
8.13786e-06
7.68209e-06
7.354e-06
7.14204e-06
7.03822e-06
7.03808e-06
7.1415e-06
7.35261e-06
7.67893e-06
8.13181e-06
8.72489e-06
9.46603e-06
1.03444e-05
1.13342e-05
1.24729e-05
1.39786e-05
1.65199e-05
2.19142e-05
3.30044e-05
9.12913e-05
7.25835e-05
2.2159e-05
1.34348e-05
8.50685e-06
6.05955e-06
4.7759e-06
4.00192e-06
3.4617e-06
3.05602e-06
2.74143e-06
2.50112e-06
2.32316e-06
2.19901e-06
2.12084e-06
2.08324e-06
2.08346e-06
2.12145e-06
2.19984e-06
2.32374e-06
2.50001e-06
2.73903e-06
3.05226e-06
3.45601e-06
3.99354e-06
4.76973e-06
6.05504e-06
8.49555e-06
1.33717e-05
2.19866e-05
7.21791e-05
5.02281e-05
1.77477e-05
9.26555e-06
4.94018e-06
2.84071e-06
1.89453e-06
1.46726e-06
1.24e-06
1.09802e-06
9.9426e-07
9.16886e-07
8.6053e-07
8.21392e-07
7.96902e-07
7.85219e-07
7.85403e-07
7.97449e-07
8.2228e-07
8.61732e-07
9.1839e-07
9.96102e-07
1.1003e-06
1.24282e-06
1.47192e-06
1.90523e-06
2.85689e-06
4.94228e-06
9.2201e-06
1.76233e-05
5.00665e-05
3.89309e-05
1.37108e-05
6.5502e-06
3.0435e-06
1.52828e-06
9.50183e-07
7.21436e-07
6.18384e-07
5.61629e-07
5.23741e-07
4.96448e-07
4.76441e-07
4.61422e-07
4.51857e-07
4.47288e-07
4.47377e-07
4.52124e-07
4.61882e-07
4.77133e-07
4.97491e-07
5.25095e-07
5.63451e-07
6.20951e-07
7.25356e-07
9.59194e-07
1.54056e-06
3.04957e-06
6.52449e-06
1.36414e-05
3.88831e-05
3.20518e-05
1.12504e-05
4.6796e-06
1.96512e-06
9.78038e-07
6.26134e-07
4.87911e-07
4.24308e-07
3.89911e-07
3.69065e-07
3.55075e-07
3.45239e-07
3.38326e-07
3.33989e-07
3.31989e-07
3.32061e-07
3.34215e-07
3.38748e-07
3.45891e-07
3.56028e-07
3.70407e-07
3.91802e-07
4.2688e-07
4.90744e-07
6.30147e-07
9.8432e-07
1.96806e-06
4.6635e-06
1.12111e-05
3.20537e-05
2.74563e-05
9.46422e-06
3.46275e-06
1.37852e-06
7.20071e-07
4.8969e-07
3.92322e-07
3.47001e-07
3.23988e-07
3.10814e-07
3.02524e-07
2.96981e-07
2.93253e-07
2.90956e-07
2.89898e-07
2.89967e-07
2.91172e-07
2.93644e-07
2.97591e-07
3.03421e-07
3.12089e-07
3.25737e-07
3.49229e-07
3.94743e-07
4.91973e-07
7.22618e-07
1.38005e-06
3.45294e-06
9.44743e-06
2.74708e-05
2.4213e-05
8.09012e-06
2.70157e-06
1.06652e-06
5.86595e-07
4.17732e-07
3.45619e-07
3.12379e-07
2.95345e-07
2.85838e-07
2.80139e-07
2.76535e-07
2.74228e-07
2.72851e-07
2.72232e-07
2.72295e-07
2.73048e-07
2.74579e-07
2.77075e-07
2.80915e-07
2.869e-07
2.96719e-07
3.14013e-07
3.47363e-07
4.19346e-07
5.87947e-07
1.06773e-06
2.69697e-06
8.08078e-06
2.42282e-05
2.17791e-05
7.02069e-06
2.21221e-06
8.82618e-07
5.10377e-07
3.75387e-07
3.20151e-07
2.94386e-07
2.81158e-07
2.73904e-07
2.69707e-07
2.67177e-07
2.65634e-07
2.64747e-07
2.64362e-07
2.64416e-07
2.64913e-07
2.65924e-07
2.67614e-07
2.70313e-07
2.74695e-07
2.82123e-07
2.95458e-07
3.21203e-07
3.76271e-07
5.11128e-07
8.83521e-07
2.20966e-06
7.01558e-06
2.17971e-05
1.99849e-05
6.21003e-06
1.88795e-06
7.68073e-07
4.60646e-07
3.49602e-07
3.05031e-07
2.84165e-07
2.73525e-07
2.67803e-07
2.64599e-07
2.62749e-07
2.6167e-07
2.61074e-07
2.60824e-07
2.60865e-07
2.61202e-07
2.61891e-07
2.63072e-07
2.6503e-07
2.68339e-07
2.74138e-07
2.84792e-07
3.05575e-07
3.49965e-07
4.60884e-07
7.68713e-07
1.88653e-06
6.20779e-06
2.0001e-05
1.8663e-05
5.6107e-06
1.66899e-06
6.94523e-07
4.28201e-07
3.33856e-07
2.95805e-07
2.78115e-07
2.69225e-07
2.64556e-07
2.6203e-07
2.60631e-07
2.59851e-07
2.59436e-07
2.59267e-07
2.59297e-07
2.59528e-07
2.60006e-07
2.60851e-07
2.62312e-07
2.64887e-07
2.69577e-07
2.78437e-07
2.96034e-07
3.33944e-07
4.28244e-07
6.94999e-07
1.66836e-06
5.61017e-06
1.86778e-05
1.77032e-05
5.18023e-06
1.52123e-06
6.46377e-07
4.07146e-07
3.23874e-07
2.90094e-07
2.7448e-07
2.66752e-07
2.62792e-07
2.6072e-07
2.59619e-07
2.59031e-07
2.5873e-07
2.5861e-07
2.58631e-07
2.58791e-07
2.59133e-07
2.59758e-07
2.60889e-07
2.62977e-07
2.6693e-07
2.74614e-07
2.90147e-07
3.23829e-07
4.07103e-07
6.46725e-07
1.52108e-06
5.18062e-06
1.77172e-05
1.70335e-05
4.8853e-06
1.4252e-06
6.15574e-07
3.93677e-07
3.17566e-07
2.86577e-07
2.72311e-07
2.65337e-07
2.61834e-07
2.60053e-07
2.5914e-07
2.58671e-07
2.58439e-07
2.58347e-07
2.58361e-07
2.58478e-07
2.58734e-07
2.59222e-07
2.60146e-07
2.61925e-07
2.65407e-07
2.72337e-07
2.86537e-07
3.17457e-07
3.93569e-07
6.15682e-07
1.42531e-06
4.88618e-06
1.70473e-05
1.66085e-05
4.70162e-06
1.36718e-06
5.97273e-07
3.85643e-07
3.13828e-07
2.84536e-07
2.7109e-07
2.64569e-07
2.61339e-07
2.59729e-07
2.58925e-07
2.58523e-07
2.58328e-07
2.58252e-07
2.5826e-07
2.58353e-07
2.5856e-07
2.58971e-07
2.59775e-07
2.61374e-07
2.64579e-07
2.71059e-07
2.8445e-07
3.1369e-07
3.85512e-07
5.97335e-07
1.36724e-06
4.70261e-06
1.66224e-05
1.64016e-05
4.61359e-06
1.33979e-06
5.88676e-07
3.81884e-07
3.1209e-07
2.83605e-07
2.7055e-07
2.64242e-07
2.61138e-07
2.59606e-07
2.58849e-07
2.58476e-07
2.58297e-07
2.58227e-07
2.58233e-07
2.58314e-07
2.58501e-07
2.58878e-07
2.5963e-07
2.61148e-07
2.64226e-07
2.70495e-07
2.83503e-07
3.11944e-07
3.81747e-07
5.88717e-07
1.33981e-06
4.61457e-06
1.64156e-05
1.64004e-05
4.61352e-06
1.33986e-06
5.8871e-07
3.81916e-07
3.12121e-07
2.83635e-07
2.70579e-07
2.6427e-07
2.61164e-07
2.59628e-07
2.58868e-07
2.58492e-07
2.5831e-07
2.58239e-07
2.58245e-07
2.58327e-07
2.58516e-07
2.58895e-07
2.5965e-07
2.61172e-07
2.64254e-07
2.70526e-07
2.83537e-07
3.1198e-07
3.81784e-07
5.88752e-07
1.33987e-06
4.61451e-06
1.64146e-05
1.6605e-05
4.70135e-06
1.36737e-06
5.97381e-07
3.85741e-07
3.13922e-07
2.84629e-07
2.71181e-07
2.64655e-07
2.61417e-07
2.59797e-07
2.58983e-07
2.58571e-07
2.58369e-07
2.58289e-07
2.58297e-07
2.58391e-07
2.58605e-07
2.59023e-07
2.59837e-07
2.61447e-07
2.64664e-07
2.71154e-07
2.84554e-07
3.13801e-07
3.85628e-07
5.97446e-07
1.36743e-06
4.70242e-06
1.66192e-05
1.70276e-05
4.8847e-06
1.4255e-06
6.15765e-07
3.93852e-07
3.17734e-07
2.86742e-07
2.72473e-07
2.65489e-07
2.61971e-07
2.60172e-07
2.59241e-07
2.58755e-07
2.5851e-07
2.58411e-07
2.58423e-07
2.58544e-07
2.58809e-07
2.5931e-07
2.60251e-07
2.62048e-07
2.65551e-07
2.72501e-07
2.86719e-07
3.17656e-07
3.93781e-07
6.15886e-07
1.42563e-06
4.88579e-06
1.70419e-05
1.76948e-05
5.17906e-06
1.52138e-06
6.46697e-07
4.0742e-07
3.24132e-07
2.90349e-07
2.74728e-07
2.66983e-07
2.62998e-07
2.60896e-07
2.59767e-07
2.59153e-07
2.58834e-07
2.58703e-07
2.5872e-07
2.58886e-07
2.59239e-07
2.59883e-07
2.61038e-07
2.63155e-07
2.67138e-07
2.74855e-07
2.9042e-07
3.24135e-07
4.07436e-07
6.47052e-07
1.52145e-06
5.17991e-06
1.77092e-05
1.86522e-05
5.60872e-06
1.669e-06
6.94984e-07
4.28595e-07
3.34229e-07
2.96175e-07
2.78472e-07
2.69554e-07
2.64845e-07
2.62274e-07
2.60833e-07
2.60018e-07
2.59577e-07
2.59393e-07
2.59419e-07
2.59654e-07
2.60147e-07
2.61016e-07
2.62508e-07
2.65122e-07
2.69854e-07
2.78761e-07
2.96408e-07
3.34374e-07
4.2873e-07
6.95479e-07
1.66872e-06
5.60899e-06
1.8667e-05
1.99715e-05
6.20678e-06
1.8877e-06
7.68715e-07
4.61182e-07
3.50119e-07
3.05551e-07
2.84665e-07
2.73978e-07
2.68193e-07
2.64923e-07
2.63014e-07
2.61888e-07
2.61259e-07
2.60989e-07
2.61024e-07
2.61365e-07
2.62071e-07
2.6328e-07
2.65278e-07
2.68634e-07
2.74489e-07
2.85203e-07
3.06052e-07
3.50518e-07
4.61532e-07
7.69414e-07
1.88703e-06
6.20593e-06
1.99871e-05
2.17631e-05
7.01562e-06
2.21158e-06
8.83467e-07
5.10979e-07
3.76074e-07
3.20872e-07
2.95071e-07
2.81763e-07
2.7441e-07
2.7012e-07
2.67511e-07
2.65909e-07
2.64983e-07
2.64575e-07
2.64621e-07
2.65122e-07
2.66152e-07