/*--------------------------------*- C++ -*----------------------------------*\
| =========                 |                                                 |
| \\      /  F ield         | OpenFOAM: The Open Source CFD Toolbox           |
|  \\    /   O peration     | Version:  2312                                  |
|   \\  /    A nd           | Website:  www.openfoam.com                      |
|    \\/     M anipulation  |                                                 |
\*---------------------------------------------------------------------------*/
FoamFile
{
    version     2.0;
    format      ascii;
    arch        "LSB;label=32;scalar=64";
    class       volScalarField;
    location    "950";
    object      k;
}
// * * * * * * * * * * * * * * * * * * * * * * * * * * * * * * * * * * * * * //

dimensions      [0 2 -2 0 0 0 0];

internalField   nonuniform List<scalar> 
27000
(
0.000258663
0.000129357
0.000107493
9.58297e-05
9.04109e-05
8.7043e-05
8.44747e-05
8.22224e-05
8.03463e-05
7.88251e-05
7.76085e-05
7.66598e-05
7.5932e-05
7.5438e-05
7.51921e-05
7.51947e-05
7.54457e-05
7.5944e-05
7.66724e-05
7.76233e-05
7.88414e-05
8.03621e-05
8.22349e-05
8.44795e-05
8.70333e-05
9.03749e-05
9.57483e-05
0.000107339
0.000129116
0.000258205
9.80276e-05
2.14371e-05
2.82286e-05
3.06715e-05
3.24725e-05
3.36618e-05
3.4419e-05
3.48719e-05
3.51199e-05
3.52668e-05
3.53648e-05
3.54346e-05
3.54813e-05
3.55086e-05
3.552e-05
3.5517e-05
3.54995e-05
3.54658e-05
3.54125e-05
3.5336e-05
3.52307e-05
3.50763e-05
3.48218e-05
3.4365e-05
3.36048e-05
3.241e-05
3.06002e-05
2.81408e-05
2.13655e-05
9.78699e-05
0.000101223
3.48002e-05
2.88795e-05
2.73933e-05
2.80752e-05
2.89585e-05
2.97045e-05
3.03219e-05
3.07997e-05
3.11658e-05
3.14483e-05
3.16635e-05
3.18189e-05
3.19189e-05
3.19659e-05
3.19613e-05
3.19053e-05
3.1797e-05
3.16346e-05
3.14147e-05
3.11289e-05
3.07619e-05
3.02872e-05
2.9679e-05
2.89502e-05
2.80747e-05
2.73854e-05
2.88155e-05
3.46557e-05
0.00010109
9.48713e-05
3.52046e-05
2.88216e-05
2.86658e-05
2.95146e-05
3.02973e-05
3.09059e-05
3.1377e-05
3.17403e-05
3.20165e-05
3.22273e-05
3.23866e-05
3.25015e-05
3.25754e-05
3.26101e-05
3.26064e-05
3.25648e-05
3.24852e-05
3.23666e-05
3.22063e-05
3.19975e-05
3.17272e-05
3.13747e-05
3.09183e-05
3.03249e-05
2.95495e-05
2.86909e-05
2.88021e-05
3.51014e-05
9.48092e-05
9.03874e-05
3.42064e-05
2.90916e-05
2.98167e-05
3.08235e-05
3.15636e-05
3.20812e-05
3.24477e-05
3.27107e-05
3.28999e-05
3.30374e-05
3.31373e-05
3.32077e-05
3.32524e-05
3.32732e-05
3.32709e-05
3.3246e-05
3.31985e-05
3.31274e-05
3.30295e-05
3.28972e-05
3.27168e-05
3.24655e-05
3.21116e-05
3.16028e-05
3.08621e-05
2.98399e-05
2.90793e-05
3.41375e-05
9.03728e-05
8.67254e-05
3.39308e-05
2.94996e-05
3.05809e-05
3.16562e-05
3.23825e-05
3.28553e-05
3.31622e-05
3.33611e-05
3.34896e-05
3.35729e-05
3.36273e-05
3.36624e-05
3.36834e-05
3.36928e-05
3.36918e-05
3.36807e-05
3.36592e-05
3.36255e-05
3.35748e-05
3.34977e-05
3.33775e-05
3.31876e-05
3.2888e-05
3.24172e-05
3.16842e-05
3.05911e-05
2.94827e-05
3.38818e-05
8.67398e-05
8.35838e-05
3.39764e-05
3.01293e-05
3.11978e-05
3.2219e-05
3.29033e-05
3.33372e-05
3.3602e-05
3.37568e-05
3.38428e-05
3.38874e-05
3.3909e-05
3.39185e-05
3.39221e-05
3.39232e-05
3.39231e-05
3.39221e-05
3.39194e-05
3.39123e-05
3.38948e-05
3.38555e-05
3.37756e-05
3.36258e-05
3.33632e-05
3.29259e-05
3.22306e-05
3.11902e-05
3.00956e-05
3.39347e-05
8.36162e-05
8.08565e-05
3.41263e-05
3.07703e-05
3.17298e-05
3.26407e-05
3.32516e-05
3.36344e-05
3.38584e-05
3.39777e-05
3.40324e-05
3.40502e-05
3.40498e-05
3.40424e-05
3.40348e-05
3.40305e-05
3.40309e-05
3.40364e-05
3.40456e-05
3.40555e-05
3.40593e-05
3.40451e-05
3.39936e-05
3.38757e-05
3.36499e-05
3.32604e-05
3.26369e-05
3.17088e-05
3.07322e-05
3.40943e-05
8.0902e-05
7.83481e-05
3.42753e-05
3.13066e-05
3.21623e-05
3.29634e-05
3.34938e-05
3.38189e-05
3.40007e-05
3.40886e-05
3.41194e-05
3.41191e-05
3.41053e-05
3.40884e-05
3.40747e-05
3.40675e-05
3.40682e-05
3.40769e-05
3.40922e-05
3.41111e-05
3.41272e-05
3.41292e-05
3.40991e-05
3.401e-05
3.38239e-05
3.34908e-05
3.29488e-05
3.21347e-05
3.12696e-05
3.42527e-05
7.84099e-05
7.6212e-05
3.44016e-05
3.17359e-05
3.25031e-05
3.32074e-05
3.36646e-05
3.39342e-05
3.4076e-05
3.41362e-05
3.41486e-05
3.41367e-05
3.41157e-05
3.40947e-05
3.40788e-05
3.40707e-05
3.40714e-05
3.40809e-05
3.40981e-05
3.41203e-05
3.41423e-05
3.41543e-05
3.41407e-05
3.40776e-05
3.39305e-05
3.36532e-05
3.31866e-05
3.24734e-05
3.17025e-05
3.43868e-05
7.62771e-05
7.44522e-05
3.45034e-05
3.20721e-05
3.27697e-05
3.33944e-05
3.37871e-05
3.40075e-05
3.4114e-05
3.4151e-05
3.41497e-05
3.41309e-05
3.4107e-05
3.40854e-05
3.40698e-05
3.40619e-05
3.40624e-05
3.40713e-05
3.40877e-05
3.41098e-05
3.41335e-05
3.41512e-05
3.41502e-05
3.41094e-05
3.39975e-05
3.37704e-05
3.33706e-05
3.27402e-05
3.20426e-05
3.44942e-05
7.45182e-05
7.30584e-05
3.45809e-05
3.23262e-05
3.29716e-05
3.35345e-05
3.3875e-05
3.40549e-05
3.41327e-05
3.41514e-05
3.41405e-05
3.41176e-05
3.40934e-05
3.40729e-05
3.40587e-05
3.40517e-05
3.4052e-05
3.40595e-05
3.4074e-05
3.40941e-05
3.41174e-05
3.41383e-05
3.41464e-05
3.41235e-05
3.40407e-05
3.38553e-05
3.35096e-05
3.29433e-05
3.23e-05
3.45757e-05
7.31248e-05
7.2021e-05
3.46358e-05
3.25076e-05
3.31164e-05
3.36343e-05
3.3936e-05
3.40855e-05
3.41417e-05
3.41473e-05
3.41298e-05
3.4105e-05
3.40815e-05
3.40628e-05
3.40503e-05
3.40442e-05
3.40443e-05
3.40505e-05
3.40627e-05
3.40805e-05
3.41025e-05
3.41248e-05
3.41391e-05
3.41296e-05
3.40689e-05
3.39149e-05
3.36093e-05
3.30894e-05
3.24841e-05
3.46334e-05
7.20878e-05
7.13322e-05
3.46704e-05
3.2624e-05
3.32096e-05
3.36983e-05
3.39746e-05
3.4104e-05
3.41462e-05
3.41432e-05
3.41218e-05
3.40962e-05
3.40736e-05
3.40565e-05
3.40454e-05
3.404e-05
3.40399e-05
3.4045e-05
3.40555e-05
3.40714e-05
3.40921e-05
3.4115e-05
3.41332e-05
3.41324e-05
3.40862e-05
3.39529e-05
3.36736e-05
3.31838e-05
3.26023e-05
3.46697e-05
7.13995e-05
7.09865e-05
3.46861e-05
3.26805e-05
3.3255e-05
3.37295e-05
3.39934e-05
3.4113e-05
3.41482e-05
3.41413e-05
3.41179e-05
3.40921e-05
3.40701e-05
3.40539e-05
3.40435e-05
3.40385e-05
3.40383e-05
3.40428e-05
3.40524e-05
3.40672e-05
3.40872e-05
3.41104e-05
3.41304e-05
3.41338e-05
3.40948e-05
3.39718e-05
3.37053e-05
3.32301e-05
3.26598e-05
3.46863e-05
7.10541e-05
7.09809e-05
3.4684e-05
3.26797e-05
3.32546e-05
3.37295e-05
3.39936e-05
3.41134e-05
3.41488e-05
3.41419e-05
3.41186e-05
3.40928e-05
3.40707e-05
3.40545e-05
3.40441e-05
3.40391e-05
3.40389e-05
3.40434e-05
3.4053e-05
3.40679e-05
3.40879e-05
3.41111e-05
3.41312e-05
3.41346e-05
3.40955e-05
3.39724e-05
3.37058e-05
3.32301e-05
3.26593e-05
3.46842e-05
7.10487e-05
7.13157e-05
3.4664e-05
3.26215e-05
3.32085e-05
3.36982e-05
3.39752e-05
3.41052e-05
3.41478e-05
3.41451e-05
3.41238e-05
3.40982e-05
3.40755e-05
3.40583e-05
3.40471e-05
3.40416e-05
3.40415e-05
3.40467e-05
3.40573e-05
3.40733e-05
3.40942e-05
3.41173e-05
3.41356e-05
3.41347e-05
3.40884e-05
3.39548e-05
3.36749e-05
3.3184e-05
3.26006e-05
3.46634e-05
7.13831e-05
7.19939e-05
3.4625e-05
3.25031e-05
3.31144e-05
3.3634e-05
3.3937e-05
3.40874e-05
3.41443e-05
3.41503e-05
3.41329e-05
3.41081e-05
3.40844e-05
3.40656e-05
3.40529e-05
3.40466e-05
3.40467e-05
3.4053e-05
3.40654e-05
3.40834e-05
3.41057e-05
3.41283e-05
3.41428e-05
3.41333e-05
3.40724e-05
3.39179e-05
3.36113e-05
3.30897e-05
3.24812e-05
3.4623e-05
7.20605e-05
7.30214e-05
3.45654e-05
3.23194e-05
3.29686e-05
3.35339e-05
3.38762e-05
3.40575e-05
3.41361e-05
3.41554e-05
3.41445e-05
3.41215e-05
3.40969e-05
3.40762e-05
3.40617e-05
3.40545e-05
3.40548e-05
3.40625e-05
3.40772e-05
3.40977e-05
3.41214e-05
3.41426e-05
3.4151e-05
3.41283e-05
3.40454e-05
3.38593e-05
3.35124e-05
3.29438e-05
3.2296e-05
3.45609e-05
7.30864e-05
7.44061e-05
3.44828e-05
3.20626e-05
3.27653e-05
3.33934e-05
3.37885e-05
3.40106e-05
3.41182e-05
3.41556e-05
3.41542e-05
3.41351e-05
3.41107e-05
3.40886e-05
3.40726e-05
3.40645e-05
3.4065e-05
3.40741e-05
3.40908e-05
3.41134e-05
3.41376e-05
3.41559e-05
3.41553e-05
3.41147e-05
3.40027e-05
3.3775e-05
3.33738e-05
3.27406e-05
3.20372e-05
3.4475e-05
7.44688e-05
7.61576e-05
3.43753e-05
3.17231e-05
3.24971e-05
3.32059e-05
3.36662e-05
3.39379e-05
3.40807e-05
3.4141e-05
3.4153e-05
3.41405e-05
3.41187e-05
3.40971e-05
3.40808e-05
3.40724e-05
3.40731e-05
3.40829e-05
3.41006e-05
3.41234e-05
3.4146e-05
3.41586e-05
3.41456e-05
3.40828e-05
3.39358e-05
3.36579e-05
3.31898e-05
3.24733e-05
3.16954e-05
3.43628e-05
7.62165e-05
7.82861e-05
3.42425e-05
3.12897e-05
3.21545e-05
3.29614e-05
3.34956e-05
3.38229e-05
3.40055e-05
3.40931e-05
3.4123e-05
3.41217e-05
3.41068e-05
3.40891e-05
3.40749e-05
3.40676e-05
3.40684e-05
3.40774e-05
3.40934e-05
3.4113e-05
3.41297e-05
3.41324e-05
3.4103e-05
3.40143e-05
3.38283e-05
3.34947e-05
3.29511e-05
3.21333e-05
3.12601e-05
3.42238e-05
7.83391e-05
8.07879e-05
3.40865e-05
3.07491e-05
3.17205e-05
3.26386e-05
3.32537e-05
3.36384e-05
3.38625e-05
3.3981e-05
3.40342e-05
3.40505e-05
3.40487e-05
3.40405e-05
3.40325e-05
3.40281e-05
3.40288e-05
3.40348e-05
3.40448e-05
3.40555e-05
3.40601e-05
3.40466e-05
3.39958e-05
3.38783e-05
3.36526e-05
3.32625e-05
3.26374e-05
3.17052e-05
3.07191e-05
3.40599e-05
8.08311e-05
8.35189e-05
3.39292e-05
3.0105e-05
3.11884e-05
3.22173e-05
3.29054e-05
3.33404e-05
3.36044e-05
3.37574e-05
3.38412e-05
3.3884e-05
3.39042e-05
3.39128e-05
3.39162e-05
3.39175e-05
3.39179e-05
3.39177e-05
3.3916e-05
3.39099e-05
3.38933e-05
3.38547e-05
3.37753e-05
3.36259e-05
3.33631e-05
3.29252e-05
3.22282e-05
3.11835e-05
3.00784e-05
3.38937e-05
8.35415e-05
8.66529e-05
3.38774e-05
2.94773e-05
3.05719e-05
3.16542e-05
3.23833e-05
3.2856e-05
3.31608e-05
3.33569e-05
3.34828e-05
3.35642e-05
3.36172e-05
3.36518e-05
3.36728e-05
3.36828e-05
3.36826e-05
3.36727e-05
3.36524e-05
3.36199e-05
3.35703e-05
3.34939e-05
3.33741e-05
3.31844e-05
3.28846e-05
3.24128e-05
3.16778e-05
3.05805e-05
2.9463e-05
3.38353e-05
8.66573e-05
9.03034e-05
3.41392e-05
2.90627e-05
2.98045e-05
3.08187e-05
3.15606e-05
3.20763e-05
3.24392e-05
3.26988e-05
3.28853e-05
3.30213e-05
3.31205e-05
3.31907e-05
3.32359e-05
3.32577e-05
3.32567e-05
3.32332e-05
3.31873e-05
3.31177e-05
3.30209e-05
3.28893e-05
3.27094e-05
3.24582e-05
3.2104e-05
3.1594e-05
3.08506e-05
2.98229e-05
2.90507e-05
3.40798e-05
9.02819e-05
9.47698e-05
3.5119e-05
2.87794e-05
2.86463e-05
2.9503e-05
3.02859e-05
3.08901e-05
3.13566e-05
3.17169e-05
3.19916e-05
3.22018e-05
3.23609e-05
3.24763e-05
3.25514e-05
3.25875e-05
3.25854e-05
3.25455e-05
3.24676e-05
3.23507e-05
3.21917e-05
3.19835e-05
3.17135e-05
3.1361e-05
3.09051e-05
3.0311e-05
2.95323e-05
2.86664e-05
2.87605e-05
3.50311e-05
9.47088e-05
0.000101103
3.47075e-05
2.88093e-05
2.73564e-05
2.80471e-05
2.89299e-05
2.96672e-05
3.02819e-05
3.07597e-05
3.11267e-05
3.14101e-05
3.1626e-05
3.17828e-05
3.18844e-05
3.19331e-05
3.193e-05
3.18756e-05
3.17689e-05
3.16081e-05
3.13889e-05
3.11033e-05
3.07357e-05
3.02603e-05
2.96529e-05
2.89262e-05
2.80477e-05
2.73499e-05
2.8755e-05
3.45865e-05
0.000100989
9.78969e-05
2.1391e-05
2.81562e-05
3.06037e-05
3.24069e-05
3.35977e-05
3.4355e-05
3.48092e-05
3.50598e-05
3.52097e-05
3.53104e-05
3.53821e-05
3.54297e-05
3.54577e-05
3.54697e-05
3.54671e-05
3.545e-05
3.54166e-05
3.53636e-05
3.5286e-05
3.51791e-05
3.50227e-05
3.47664e-05
3.4309e-05
3.35478e-05
3.23509e-05
3.05409e-05
2.80818e-05
2.13302e-05
9.77639e-05
0.000258357
0.000129191
0.000107367
9.57345e-05
9.03316e-05
8.69726e-05
8.44096e-05
8.21607e-05
8.02861e-05
7.87651e-05
7.75477e-05
7.65963e-05
7.58544e-05
7.53565e-05
7.51086e-05
7.51094e-05
7.53588e-05
7.58578e-05
7.65994e-05
7.75509e-05
7.87674e-05
8.0286e-05
8.2156e-05
8.43971e-05
8.69475e-05
9.02853e-05
9.56528e-05
0.000107228
0.000128978
0.000257961
0.000211432
0.000107102
9.26775e-05
8.48048e-05
8.21309e-05
8.07576e-05
7.98301e-05
7.89778e-05
7.82445e-05
7.75593e-05
7.69936e-05
7.65517e-05
7.62828e-05
7.61326e-05
7.60593e-05
7.60567e-05
7.61248e-05
7.62706e-05
7.65413e-05
7.69801e-05
7.75413e-05
7.82188e-05
7.89485e-05
7.9822e-05
8.07908e-05
8.22228e-05
8.49837e-05
9.29801e-05
0.000107592
0.000212373
7.84281e-05
2.37981e-05
4.1333e-05
4.21802e-05
4.33927e-05
4.35872e-05
4.31881e-05
4.28037e-05
4.23025e-05
4.17843e-05
4.13223e-05
4.09518e-05
4.0683e-05
4.05109e-05
4.04282e-05
4.04307e-05
4.0519e-05
4.06979e-05
4.09755e-05
4.13558e-05
4.18295e-05
4.23655e-05
4.28995e-05
4.33822e-05
4.38368e-05
4.36471e-05
4.242e-05
4.15278e-05
2.4014e-05
7.87776e-05
9.02665e-05
5.06053e-05
4.08477e-05
3.28121e-05
3.00969e-05
2.95975e-05
2.95073e-05
2.93327e-05
2.91461e-05
2.89652e-05
2.88014e-05
2.86657e-05
2.85695e-05
2.85124e-05
2.84906e-05
2.85015e-05
2.85454e-05
2.86244e-05
2.87392e-05
2.88858e-05
2.90629e-05
2.92577e-05
2.94544e-05
2.96208e-05
2.96489e-05
3.01077e-05
3.28259e-05
4.09904e-05
5.10295e-05
9.05642e-05
8.61385e-05
4.95309e-05
3.5965e-05
2.81239e-05
2.47795e-05
2.42809e-05
2.4657e-05
2.5129e-05
2.55212e-05
2.58594e-05
2.61146e-05
2.62946e-05
2.64167e-05
2.64951e-05
2.65379e-05
2.65484e-05
2.65263e-05
2.64671e-05
2.63601e-05
2.61891e-05
2.59372e-05
2.55915e-05
2.51743e-05
2.46554e-05
2.42185e-05
2.46846e-05
2.80889e-05
3.61078e-05
4.98837e-05
8.62752e-05
8.43988e-05
4.54603e-05
3.22385e-05
2.57382e-05
2.37625e-05
2.37728e-05
2.44214e-05
2.51219e-05
2.57042e-05
2.61666e-05
2.6518e-05
2.67717e-05
2.69443e-05
2.70525e-05
2.71076e-05
2.71147e-05
2.70734e-05
2.69769e-05
2.68121e-05
2.65599e-05
2.6202e-05
2.57199e-05
2.51022e-05
2.43549e-05
2.3667e-05
2.36645e-05
2.57064e-05
3.23141e-05
4.57188e-05
8.44278e-05
8.31499e-05
4.2143e-05
3.00309e-05
2.49638e-05
2.40425e-05
2.44694e-05
2.51829e-05
2.58731e-05
2.64542e-05
2.6914e-05
2.7263e-05
2.75165e-05
2.76906e-05
2.77995e-05
2.78535e-05
2.78576e-05
2.78113e-05
2.77081e-05
2.75358e-05
2.72783e-05
2.69175e-05
2.6437e-05
2.58286e-05
2.51113e-05
2.43856e-05
2.39788e-05
2.49692e-05
3.01124e-05
4.23424e-05
8.31195e-05
8.19594e-05
4.00014e-05
2.84281e-05
2.48146e-05
2.46714e-05
2.52949e-05
2.60054e-05
2.66412e-05
2.71671e-05
2.75812e-05
2.78946e-05
2.81222e-05
2.82785e-05
2.8376e-05
2.84235e-05
2.84254e-05
2.83813e-05
2.82853e-05
2.81274e-05
2.78937e-05
2.75692e-05
2.714e-05
2.65986e-05
2.59539e-05
2.52506e-05
2.46604e-05
2.48654e-05
2.85355e-05
4.00733e-05
8.19112e-05
8.0887e-05
3.87184e-05
2.7465e-05
2.49253e-05
2.52606e-05
2.60024e-05
2.66955e-05
2.72748e-05
2.77376e-05
2.80948e-05
2.83615e-05
2.8553e-05
2.86835e-05
2.87641e-05
2.88028e-05
2.88033e-05
2.87651e-05
2.86837e-05
2.85502e-05
2.8353e-05
2.80785e-05
2.77131e-05
2.72455e-05
2.66699e-05
2.59947e-05
2.52903e-05
2.50033e-05
2.75608e-05
3.8756e-05
8.08331e-05
8.02486e-05
3.78572e-05
2.69835e-05
2.52218e-05
2.57831e-05
2.65684e-05
2.72366e-05
2.77631e-05
2.81654e-05
2.84655e-05
2.86834e-05
2.88365e-05
2.89388e-05
2.90011e-05
2.90303e-05
2.903e-05
2.89997e-05
2.89357e-05
2.88304e-05
2.86734e-05
2.84514e-05
2.81491e-05
2.77493e-05
2.72334e-05
2.65864e-05
2.58331e-05
2.53052e-05
2.70632e-05
3.7877e-05
8.0176e-05
7.96983e-05
3.72585e-05
2.67454e-05
2.55237e-05
2.6212e-05
2.70069e-05
2.76452e-05
2.81238e-05
2.84723e-05
2.87205e-05
2.88933e-05
2.90101e-05
2.90858e-05
2.91307e-05
2.91512e-05
2.91505e-05
2.91285e-05
2.90817e-05
2.90039e-05
2.8885e-05
2.87114e-05
2.84651e-05
2.81231e-05
2.76572e-05
2.70382e-05
2.62676e-05
2.56003e-05
2.68089e-05
3.72672e-05
7.96279e-05
7.92193e-05
3.68392e-05
2.66345e-05
2.57753e-05
2.65383e-05
2.73334e-05
2.79435e-05
2.83811e-05
2.86841e-05
2.88884e-05
2.90227e-05
2.91086e-05
2.91615e-05
2.91915e-05
2.92048e-05
2.9204e-05
2.91894e-05
2.9158e-05
2.9104e-05
2.90178e-05
2.88848e-05
2.86847e-05
2.83896e-05
2.79642e-05
2.73701e-05
2.65924e-05
2.58419e-05
2.66845e-05
3.68411e-05
7.91525e-05
7.88212e-05
3.65494e-05
2.65927e-05
2.59744e-05
2.67792e-05
2.75684e-05
2.81537e-05
2.85578e-05
2.88246e-05
2.89942e-05
2.90982e-05
2.91597e-05
2.91947e-05
2.92131e-05
2.92207e-05
2.92202e-05
2.92115e-05
2.91924e-05
2.91573e-05
2.90967e-05
2.89954e-05
2.88309e-05
2.8572e-05
2.81786e-05
2.76059e-05
2.68292e-05
2.60314e-05
2.66323e-05
3.65473e-05
7.87568e-05
7.8514e-05
3.63561e-05
2.65859e-05
2.61245e-05
2.69503e-05
2.77302e-05
2.8295e-05
2.86734e-05
2.89133e-05
2.90574e-05
2.91394e-05
2.91833e-05
2.92054e-05
2.92156e-05
2.92193e-05
2.9219e-05
2.92148e-05
2.92045e-05
2.9183e-05
2.91408e-05
2.90622e-05
2.89234e-05
2.86909e-05
2.83215e-05
2.77666e-05
2.69957e-05
2.61735e-05
2.66184e-05
3.63517e-05
7.84509e-05
7.83058e-05
3.62378e-05
2.65923e-05
2.62256e-05
2.70606e-05
2.78318e-05
2.83816e-05
2.87425e-05
2.89645e-05
2.9092e-05
2.91597e-05
2.91924e-05
2.92063e-05
2.92113e-05
2.92126e-05
2.92125e-05
2.92112e-05
2.92066e-05
2.91938e-05
2.91633e-05
2.90992e-05
2.89768e-05
2.87616e-05
2.84085e-05
2.78668e-05
2.71026e-05
2.62697e-05
2.66205e-05
3.62324e-05
7.82431e-05
7.82022e-05
3.61819e-05
2.65985e-05
2.62765e-05
2.71147e-05
2.78806e-05
2.84224e-05
2.87744e-05
2.89873e-05
2.91066e-05
2.91673e-05
2.91945e-05
2.92045e-05
2.9207e-05
2.92071e-05
2.92072e-05
2.92073e-05
2.92055e-05
2.91969e-05
2.91721e-05
2.9115e-05
2.90008e-05
2.8794e-05
2.84492e-05
2.79146e-05
2.71547e-05
2.63178e-05
2.66247e-05
3.61761e-05
7.81394e-05
7.82061e-05
3.61825e-05
2.6599e-05
2.62763e-05
2.71143e-05
2.788e-05
2.84216e-05
2.87734e-05
2.89862e-05
2.91053e-05
2.91659e-05
2.9193e-05
2.92029e-05
2.92054e-05
2.92055e-05
2.92056e-05
2.92058e-05
2.92041e-05
2.91956e-05
2.91709e-05
2.91139e-05
2.89997e-05
2.8793e-05
2.84481e-05
2.79135e-05
2.71537e-05
2.63171e-05
2.6625e-05
3.61767e-05
7.81429e-05
7.83174e-05
3.62398e-05
2.65939e-05
2.62255e-05
2.70596e-05
2.783e-05
2.83792e-05
2.87395e-05
2.8961e-05
2.90881e-05
2.91554e-05
2.91879e-05
2.92016e-05
2.92066e-05
2.92079e-05
2.92079e-05
2.92068e-05
2.92025e-05
2.919e-05
2.91598e-05
2.90959e-05
2.89736e-05
2.87583e-05
2.84052e-05
2.78635e-05
2.70995e-05
2.62674e-05
2.66212e-05
3.62345e-05
7.82538e-05
7.8533e-05
3.63597e-05
2.65894e-05
2.61248e-05
2.69489e-05
2.77274e-05
2.82909e-05
2.86684e-05
2.89074e-05
2.90509e-05
2.91323e-05
2.91759e-05
2.91978e-05
2.92079e-05
2.92116e-05
2.92115e-05
2.92077e-05
2.91978e-05
2.91768e-05
2.9135e-05
2.90568e-05
2.8918e-05
2.86854e-05
2.83159e-05
2.77609e-05
2.69902e-05
2.61696e-05
2.66197e-05
3.63555e-05
7.84691e-05
7.88474e-05
3.65554e-05
2.6599e-05
2.5976e-05
2.67779e-05
2.75646e-05
2.81479e-05
2.85505e-05
2.88162e-05
2.8985e-05
2.90885e-05
2.91497e-05
2.91845e-05
2.92029e-05
2.92106e-05
2.92103e-05
2.9202e-05
2.91834e-05
2.91489e-05
2.90888e-05
2.89879e-05
2.88235e-05
2.85644e-05
2.81706e-05
2.75975e-05
2.68212e-05
2.60255e-05
2.66343e-05
3.65531e-05
7.8783e-05
7.92522e-05
3.68483e-05
2.66452e-05
2.57793e-05
2.65373e-05
2.73285e-05
2.79357e-05
2.83712e-05
2.86731e-05
2.88767e-05
2.90108e-05
2.90966e-05
2.91494e-05
2.91794e-05
2.91928e-05
2.91923e-05
2.9178e-05
2.91471e-05
2.90937e-05
2.9008e-05
2.88755e-05
2.86754e-05
2.83799e-05
2.79539e-05
2.73591e-05
2.65817e-05
2.58339e-05
2.66874e-05
3.68495e-05
7.91873e-05
7.97375e-05
3.7272e-05
2.67624e-05
2.55311e-05
2.62114e-05
2.70002e-05
2.76347e-05
2.81111e-05
2.84587e-05
2.87068e-05
2.88797e-05
2.89969e-05
2.90727e-05
2.91177e-05
2.91383e-05
2.91377e-05
2.91159e-05
2.90696e-05
2.89923e-05
2.88739e-05
2.87006e-05
2.84542e-05
2.81117e-05
2.76448e-05
2.70249e-05
2.62543e-05
2.55903e-05
2.68134e-05
3.72787e-05
7.96724e-05
8.0294e-05
3.78771e-05
2.70092e-05
2.52333e-05
2.57822e-05
2.65589e-05
2.72225e-05
2.77472e-05
2.81496e-05
2.84506e-05
2.86696e-05
2.88234e-05
2.89262e-05
2.89885e-05
2.90177e-05
2.90173e-05
2.89871e-05
2.89232e-05
2.88182e-05
2.86615e-05
2.84396e-05
2.81371e-05
2.77366e-05
2.72196e-05
2.65713e-05
2.58179e-05
2.52941e-05
2.70706e-05
3.78924e-05
8.02298e-05
8.09378e-05
3.87485e-05
2.75024e-05
2.49406e-05
2.52576e-05
2.59883e-05
2.66772e-05
2.72563e-05
2.7721e-05
2.80807e-05
2.83494e-05
2.85423e-05
2.86733e-05
2.87539e-05
2.87922e-05
2.87923e-05
2.87538e-05
2.86721e-05
2.85385e-05
2.83413e-05
2.80667e-05
2.7701e-05
2.72327e-05
2.6656e-05
2.59796e-05
2.52756e-05
2.49946e-05
2.75746e-05
3.87787e-05
8.08783e-05
8.19957e-05
4.00553e-05
2.848e-05
2.48306e-05
2.46626e-05
2.52753e-05
2.59838e-05
2.66224e-05
2.71529e-05
2.75712e-05
2.78877e-05
2.81169e-05
2.82736e-05
2.83705e-05
2.84171e-05
2.84181e-05
2.8373e-05
2.82762e-05
2.81176e-05
2.78834e-05
2.75586e-05
2.71291e-05
2.65872e-05
2.59416e-05
2.52375e-05
2.46483e-05
2.48635e-05
2.85615e-05
4.01153e-05
8.19586e-05
8.32314e-05
4.22911e-05
3.00761e-05
2.49755e-05
2.40285e-05
2.44466e-05
2.51622e-05
2.58594e-05
2.64481e-05
2.69135e-05
2.72658e-05
2.75206e-05
2.76943e-05
2.78019e-05
2.78541e-05
2.78564e-05
2.78084e-05
2.77035e-05
2.75298e-05
2.72712e-05
2.69099e-05
2.64293e-05
2.58207e-05
2.51031e-05
2.43775e-05
2.3973e-05
2.49725e-05
3.01373e-05
4.24546e-05
8.32159e-05
8.45125e-05
4.56222e-05
3.22875e-05
2.57574e-05
2.37532e-05
2.37551e-05
2.44122e-05
2.51249e-05
2.57162e-05
2.61835e-05
2.65363e-05
2.67902e-05
2.69613e-05
2.70669e-05
2.7119e-05
2.71232e-05
2.70791e-05
2.69798e-05
2.68124e-05
2.65586e-05
2.62002e-05
2.57186e-05
2.51016e-05
2.43548e-05
2.36682e-05
2.36718e-05
2.57257e-05
3.23432e-05
4.58327e-05
8.45482e-05
8.62961e-05
4.97264e-05
3.60766e-05
2.81607e-05
2.4784e-05
2.42869e-05
2.46801e-05
2.51643e-05
2.55606e-05
2.58989e-05
2.61531e-05
2.63326e-05
2.64518e-05
2.6526e-05
2.65644e-05
2.65709e-05
2.65451e-05
2.64818e-05
2.63704e-05
2.6197e-05
2.5945e-05
2.56015e-05
2.51887e-05
2.46707e-05
2.42332e-05
2.47055e-05
2.81278e-05
3.61837e-05
5.00089e-05
8.64183e-05
9.04718e-05
5.0805e-05
4.09416e-05
3.28386e-05
3.01205e-05
2.96371e-05
2.95821e-05
2.94047e-05
2.92082e-05
2.90204e-05
2.88538e-05
2.87197e-05
2.86198e-05
2.85578e-05
2.85316e-05
2.85391e-05
2.85798e-05
2.86549e-05
2.87631e-05
2.89074e-05
2.90856e-05
2.92849e-05
2.94909e-05
2.96602e-05
2.96723e-05
3.01257e-05
3.28459e-05
4.10487e-05
5.11302e-05
9.07104e-05
7.86442e-05
2.38894e-05
4.14296e-05
4.23053e-05
4.35417e-05
4.37414e-05
4.33058e-05
4.28616e-05
4.23416e-05
4.18143e-05
4.13469e-05
4.09716e-05
4.06999e-05
4.05263e-05
4.04427e-05
4.04448e-05
4.05329e-05
4.07119e-05
4.09897e-05
4.1372e-05
4.1849e-05
4.23911e-05
4.29402e-05
4.3478e-05
4.39399e-05
4.37407e-05
4.24915e-05
4.15848e-05
2.4061e-05
7.89377e-05
0.000211955
0.000107368
9.28703e-05
8.49507e-05
8.22473e-05
8.08503e-05
7.99014e-05
7.90333e-05
7.82792e-05
7.75902e-05
7.70245e-05
7.65855e-05
7.63424e-05
7.61968e-05
7.61253e-05
7.61244e-05
7.61942e-05
7.63383e-05
7.65819e-05
7.70197e-05
7.75844e-05
7.82732e-05
7.903e-05
7.99198e-05
8.09022e-05
8.23436e-05
8.51121e-05
9.31253e-05
0.000107762
0.000212724
0.000187902
9.43709e-05
8.33539e-05
7.76205e-05
7.62005e-05
7.56103e-05
7.51186e-05
7.44669e-05
7.38822e-05
7.34877e-05
7.3185e-05
7.29526e-05
7.27554e-05
7.2614e-05
7.25439e-05
7.25448e-05
7.2617e-05
7.27604e-05
7.2957e-05
7.31914e-05
7.34968e-05
7.38971e-05
7.44853e-05
7.51174e-05
7.55708e-05
7.61095e-05
7.74629e-05
8.31099e-05
9.39622e-05
0.00018709
7.05774e-05
3.04941e-05
5.10966e-05
5.41785e-05
5.72152e-05
5.95605e-05
6.08898e-05
6.10244e-05
6.03926e-05
5.93861e-05
5.83217e-05
5.73725e-05
5.66247e-05
5.61167e-05
5.58627e-05
5.58661e-05
5.61267e-05
5.664e-05
5.73899e-05
5.83378e-05
5.93992e-05
6.04005e-05
6.10198e-05
6.08126e-05
5.94171e-05
5.7039e-05
5.40005e-05
5.09475e-05
3.02003e-05
7.02542e-05
8.17508e-05
5.66679e-05
5.08264e-05
4.46074e-05
4.02255e-05
3.79395e-05
3.66246e-05
3.56707e-05
3.49169e-05
3.41886e-05
3.35367e-05
3.30053e-05
3.26096e-05
3.23514e-05
3.22269e-05
3.22327e-05
3.23684e-05
3.26373e-05
3.30433e-05
3.3587e-05
3.42475e-05
3.4981e-05
3.57294e-05
3.66413e-05
3.79576e-05
4.02466e-05
4.46134e-05
5.06974e-05
5.62657e-05
8.14535e-05
7.85729e-05
5.98532e-05
4.89759e-05
3.69473e-05
3.01078e-05
2.70727e-05
2.6024e-05
2.56691e-05
2.54806e-05
2.52157e-05
2.49751e-05
2.47886e-05
2.46599e-05
2.4581e-05
2.45447e-05
2.45468e-05
2.4587e-05
2.46693e-05
2.48017e-05
2.49937e-05
2.52412e-05
2.55161e-05
2.57153e-05
2.60704e-05
2.71321e-05
3.02155e-05
3.69799e-05
4.88312e-05
5.95349e-05
7.84084e-05
7.72652e-05
5.80545e-05
4.38231e-05
3.16118e-05
2.55505e-05
2.3235e-05
2.24137e-05
2.22639e-05
2.23272e-05
2.24067e-05
2.2468e-05
2.25206e-05
2.25773e-05
2.26227e-05
2.26483e-05
2.26507e-05
2.26298e-05
2.25896e-05
2.25397e-05
2.24975e-05
2.24505e-05
2.23906e-05
2.23514e-05
2.25254e-05
2.33537e-05
2.56208e-05
3.16576e-05
4.37607e-05
5.78446e-05
7.72041e-05
7.64927e-05
5.6562e-05
3.85864e-05
2.80058e-05
2.36271e-05
2.2013e-05
2.17441e-05
2.1908e-05
2.2168e-05
2.24042e-05
2.25883e-05
2.27269e-05
2.28317e-05
2.2904e-05
2.29422e-05
2.29456e-05
2.29143e-05
2.285e-05
2.27553e-05
2.26304e-05
2.24652e-05
2.22535e-05
2.20214e-05
2.18794e-05
2.21376e-05
2.37215e-05
2.80458e-05
3.85603e-05
5.64309e-05
7.64966e-05
7.59404e-05
5.45316e-05
3.45722e-05
2.58752e-05
2.25941e-05
2.18344e-05
2.19833e-05
2.2337e-05
2.26863e-05
2.29765e-05
2.32e-05
2.33642e-05
2.34806e-05
2.35568e-05
2.35961e-05
2.36001e-05
2.35692e-05
2.35025e-05
2.33976e-05
2.32477e-05
2.3042e-05
2.2772e-05
2.24419e-05
2.20979e-05
2.19407e-05
2.26658e-05
2.59052e-05
3.45707e-05
5.45097e-05
7.59673e-05
7.54975e-05
5.22468e-05
3.20718e-05
2.46092e-05
2.21389e-05
2.1973e-05
2.23816e-05
2.28525e-05
2.32567e-05
2.35727e-05
2.38072e-05
2.39746e-05
2.40891e-05
2.41614e-05
2.4198e-05
2.42021e-05
2.4174e-05
2.4111e-05
2.40072e-05
2.38521e-05
2.36312e-05
2.33287e-05
2.2934e-05
2.24634e-05
2.20406e-05
2.21764e-05
2.46177e-05
3.21095e-05
5.22448e-05
7.55291e-05
7.49656e-05
4.99856e-05
3.04097e-05
2.37268e-05
2.19861e-05
2.21987e-05
2.27605e-05
2.32985e-05
2.37328e-05
2.40595e-05
2.42943e-05
2.44568e-05
2.45642e-05
2.463e-05
2.46626e-05
2.46663e-05
2.46413e-05
2.45836e-05
2.44848e-05
2.43316e-05
2.41058e-05
2.37863e-05
2.33545e-05
2.2811e-05
2.22328e-05
2.19959e-05
2.37241e-05
3.04443e-05
4.99857e-05
7.50058e-05
7.4531e-05
4.79965e-05
2.92945e-05
2.32512e-05
2.20581e-05
2.24575e-05
2.30914e-05
2.36576e-05
2.41007e-05
2.44257e-05
2.46532e-05
2.4806e-05
2.49039e-05
2.49619e-05
2.499e-05
2.4993e-05
2.49711e-05
2.49194e-05
2.48279e-05
2.46812e-05
2.44587e-05
2.41365e-05
2.36919e-05
2.3118e-05
2.247e-05
2.20542e-05
2.32432e-05
2.93211e-05
4.79975e-05
7.45695e-05
7.41922e-05
4.63751e-05
2.85365e-05
2.30136e-05
2.22068e-05
2.27069e-05
2.33684e-05
2.39378e-05
2.43743e-05
2.46884e-05
2.49035e-05
2.5044e-05
2.51311e-05
2.51811e-05
2.52046e-05
2.52069e-05
2.5188e-05
2.51425e-05
2.50596e-05
2.49226e-05
2.47098e-05
2.43957e-05
2.39557e-05
2.33789e-05
2.27066e-05
2.21957e-05
2.30033e-05
2.85557e-05
4.63762e-05
7.42292e-05
7.39366e-05
4.5137e-05
2.80276e-05
2.2903e-05
2.23626e-05
2.29211e-05
2.35891e-05
2.41491e-05
2.45713e-05
2.48699e-05
2.50702e-05
2.51976e-05
2.52743e-05
2.53167e-05
2.53361e-05
2.53377e-05
2.53215e-05
2.5282e-05
2.52078e-05
2.5082e-05
2.48822e-05
2.4582e-05
2.41559e-05
2.35895e-05
2.29134e-05
2.23483e-05
2.28919e-05
2.80407e-05
4.51371e-05
7.39733e-05
7.37524e-05
4.42565e-05
2.76927e-05
2.28534e-05
2.24926e-05
2.30867e-05
2.37531e-05
2.43002e-05
2.47066e-05
2.49895e-05
2.51757e-05
2.52914e-05
2.53589e-05
2.53951e-05
2.54111e-05
2.54121e-05
2.53982e-05
2.53638e-05
2.52975e-05
2.51822e-05
2.49953e-05
2.47102e-05
2.42999e-05
2.37475e-05
2.30751e-05
2.2477e-05
2.28423e-05
2.77008e-05
4.42554e-05
7.37898e-05
7.36317e-05
4.36974e-05
2.74928e-05
2.28333e-05
2.25831e-05
2.31985e-05
2.38616e-05
2.43978e-05
2.47913e-05
2.50619e-05
2.52373e-05
2.53441e-05
2.5405e-05
2.54366e-05
2.54501e-05
2.54508e-05
2.54386e-05
2.54079e-05
2.53474e-05
2.52402e-05
2.50636e-05
2.47906e-05
2.43934e-05
2.38527e-05
2.31851e-05
2.25672e-05
2.28221e-05
2.74986e-05
4.36949e-05
7.36702e-05
7.35705e-05
4.34276e-05
2.74008e-05
2.28276e-05
2.26298e-05
2.32551e-05
2.39161e-05
2.44463e-05
2.48328e-05
2.50966e-05
2.52661e-05
2.53682e-05
2.54254e-05
2.54547e-05
2.54668e-05
2.54673e-05
2.5456e-05
2.54273e-05
2.53701e-05
2.52673e-05
2.50964e-05
2.48301e-05
2.44402e-05
2.3906e-05
2.32411e-05
2.26139e-05
2.28165e-05
2.74056e-05
4.34242e-05
7.361e-05
7.35671e-05
4.34287e-05
2.74019e-05
2.2829e-05
2.26313e-05
2.32568e-05
2.3918e-05
2.44482e-05
2.48347e-05
2.50985e-05
2.52678e-05
2.53696e-05
2.54267e-05
2.54558e-05
2.54679e-05
2.54684e-05
2.54571e-05
2.54285e-05
2.53714e-05
2.52689e-05
2.50981e-05
2.4832e-05
2.44422e-05
2.39081e-05
2.32431e-05
2.26158e-05
2.28181e-05
2.74067e-05
4.34255e-05
7.3607e-05
7.36216e-05
4.37005e-05
2.74962e-05
2.28374e-05
2.25877e-05
2.32036e-05
2.38672e-05
2.44037e-05
2.47972e-05
2.50675e-05
2.52423e-05
2.53486e-05
2.54089e-05
2.54401e-05
2.54533e-05
2.54539e-05
2.54418e-05
2.54114e-05
2.53514e-05
2.52448e-05
2.50688e-05
2.47963e-05
2.43995e-05
2.3859e-05
2.31912e-05
2.25731e-05
2.28272e-05
2.75019e-05
4.36987e-05
7.36614e-05
7.37358e-05
4.42612e-05
2.76988e-05
2.28606e-05
2.25004e-05
2.30956e-05
2.37629e-05
2.43105e-05
2.47168e-05
2.49992e-05
2.51844e-05
2.5299e-05
2.53655e-05
2.54009e-05
2.54163e-05
2.54172e-05
2.54036e-05
2.53696e-05
2.53041e-05
2.51898e-05
2.50039e-05
2.47198e-05
2.43103e-05
2.37582e-05
2.30859e-05
2.24873e-05
2.28514e-05
2.77067e-05
4.42615e-05
7.37749e-05
7.3914e-05
4.51428e-05
2.80381e-05
2.29137e-05
2.23742e-05
2.29344e-05
2.36038e-05
2.41645e-05
2.45864e-05
2.4884e-05
2.50827e-05
2.52085e-05
2.52837e-05
2.53249e-05
2.53435e-05
2.53449e-05
2.5329e-05
2.52901e-05
2.52171e-05
2.50926e-05
2.48943e-05
2.45956e-05
2.41707e-05
2.3605e-05
2.29293e-05
2.23639e-05
2.2906e-05
2.80504e-05
4.51452e-05
7.39522e-05
7.41643e-05
4.63815e-05
2.85515e-05
2.30277e-05
2.22228e-05
2.27256e-05
2.33891e-05
2.39592e-05
2.43951e-05
2.47075e-05
2.49202e-05
2.50584e-05
2.51435e-05
2.51919e-05
2.52144e-05
2.52163e-05
2.51976e-05
2.5153e-05
2.50714e-05
2.49362e-05
2.47253e-05
2.44132e-05
2.3975e-05
2.33996e-05
2.27282e-05
2.22175e-05
2.30231e-05
2.85695e-05
4.6386e-05
7.4202e-05
7.44988e-05
4.80022e-05
2.93143e-05
2.32688e-05
2.20793e-05
2.24829e-05
2.31196e-05
2.36863e-05
2.41279e-05
2.44501e-05
2.46744e-05
2.48241e-05
2.49193e-05
2.49753e-05
2.50022e-05
2.50047e-05
2.4983e-05
2.49322e-05
2.48423e-05
2.46976e-05
2.44775e-05
2.41578e-05
2.37156e-05
2.31438e-05
2.24975e-05
2.20825e-05
2.32688e-05
2.93389e-05
4.80081e-05
7.45364e-05
7.49303e-05
4.99901e-05
3.04349e-05
2.37477e-05
2.20134e-05
2.22326e-05
2.27979e-05
2.33357e-05
2.37671e-05
2.40896e-05
2.432e-05
2.44784e-05
2.45827e-05
2.46462e-05
2.46775e-05
2.46806e-05