/*--------------------------------*- C++ -*----------------------------------*\
| =========                 |                                                 |
| \\      /  F ield         | OpenFOAM: The Open Source CFD Toolbox           |
|  \\    /   O peration     | Version:  2312                                  |
|   \\  /    A nd           | Website:  www.openfoam.com                      |
|    \\/     M anipulation  |                                                 |
\*---------------------------------------------------------------------------*/
FoamFile
{
    version     2.0;
    format      ascii;
    arch        "LSB;label=32;scalar=64";
    class       volScalarField;
    location    "950";
    object      nut;
}
// * * * * * * * * * * * * * * * * * * * * * * * * * * * * * * * * * * * * * //

dimensions      [0 2 -1 0 0 0 0];

internalField   nonuniform List<scalar> 
27000
(
3.94868e-06
6.70364e-06
9.36674e-06
1.17538e-05
1.40749e-05
1.62417e-05
1.82088e-05
1.98708e-05
2.13007e-05
2.2523e-05
2.3539e-05
2.43492e-05
2.49499e-05
2.53473e-05
2.55455e-05
2.55459e-05
2.53484e-05
2.49515e-05
2.43508e-05
2.35408e-05
2.25248e-05
2.13022e-05
1.98717e-05
1.82088e-05
1.62403e-05
1.40718e-05
1.17486e-05
9.36e-06
6.69743e-06
3.94522e-06
5.7449e-06
1.27455e-06
5.15895e-06
9.07732e-06
1.31501e-05
1.70112e-05
2.06507e-05
2.40299e-05
2.70877e-05
2.98013e-05
3.21395e-05
3.4068e-05
3.55602e-05
3.65811e-05
3.70977e-05
3.70946e-05
3.65723e-05
3.55473e-05
3.40537e-05
3.2125e-05
2.97873e-05
2.70748e-05
2.40196e-05
2.06446e-05
1.70075e-05
1.31454e-05
9.07244e-06
5.15201e-06
1.27115e-06
5.74045e-06
9.21929e-06
7.12338e-06
1.46148e-05
2.62589e-05
3.6906e-05
4.61834e-05
5.46357e-05
6.25226e-05
6.96842e-05
7.5995e-05
8.13714e-05
8.57536e-05
8.90978e-05
9.13626e-05
9.25051e-05
9.25022e-05
9.1356e-05
8.90944e-05
8.57651e-05
8.14117e-05
7.60624e-05
6.97762e-05
6.26344e-05
5.47572e-05
4.63105e-05
3.70193e-05
2.63628e-05
1.46606e-05
7.10709e-06
9.21336e-06
1.21538e-05
1.08454e-05
2.62465e-05
5.28821e-05
7.83255e-05
9.63265e-05
0.000109741
0.000120685
0.000129855
0.000137445
0.000143648
0.000148544
0.000152187
0.00015461
0.000155822
0.000155828
0.000154631
0.000152233
0.000148628
0.000143781
0.000137621
0.000130074
0.000120932
0.000109988
9.65596e-05
7.85708e-05
5.31416e-05
2.63775e-05
1.08378e-05
1.21498e-05
1.49259e-05
1.44861e-05
3.70784e-05
7.64981e-05
0.00011343
0.00013917
0.000155951
0.000167745
0.000176515
0.000182852
0.000187771
0.000191537
0.000194276
0.000196068
0.000196958
0.000196969
0.000196104
0.000194344
0.000191643
0.000187909
0.00018299
0.0001767
0.000167967
0.000156183
0.000139422
0.000113732
7.68088e-05
3.7231e-05
1.44824e-05
1.49246e-05
1.74936e-05
1.84191e-05
4.78863e-05
9.55854e-05
0.000138109
0.000167502
0.000185485
0.000196798
0.000204238
0.000209232
0.000212701
0.000215156
0.000216856
0.000217937
0.000218467
0.000218478
0.000217972
0.000216918
0.000215246
0.000212814
0.000209363
0.000204395
0.000196976
0.000185692
0.000167777
0.00013842
9.58823e-05
4.80299e-05
1.84157e-05
1.74949e-05
1.98322e-05
2.25471e-05
5.86977e-05
0.000111813
0.000156072
0.000185356
0.000202992
0.000213283
0.000219358
0.000223016
0.000225272
0.000226697
0.000227599
0.000228139
0.000228396
0.000228405
0.000228167
0.000227648
0.000226767
0.00022536
0.000223119
0.000219477
0.00021342
0.000203162
0.000185576
0.000156327
0.000112048
5.87834e-05
2.25339e-05
1.98359e-05
2.19261e-05
2.67215e-05
6.91509e-05
0.00012581
0.000170158
0.00019759
0.000213542
0.000222376
0.000227152
0.000229703
0.000231055
0.000231767
0.000232142
0.000232333
0.000232417
0.000232424
0.000232356
0.00023218
0.00023182
0.00023112
0.000229779
0.000227238
0.000222474
0.000213663
0.000197739
0.000170305
0.000125958
6.91899e-05
2.67014e-05
2.19321e-05
2.37426e-05
3.08274e-05
7.89116e-05
0.000137752
0.000181165
0.000206259
0.00022015
0.000227417
0.000231026
0.000232711
0.000233428
0.000233685
0.000233743
0.000233735
0.000233721
0.000233727
0.000233752
0.000233772
0.000233723
0.000233473
0.000232761
0.00023108
0.000227476
0.000220217
0.000206332
0.00018122
0.000137815
7.89028e-05
3.07978e-05
2.37517e-05
2.52979e-05
3.47055e-05
8.77726e-05
0.000147744
0.000188902
0.000212223
0.000224332
0.000230233
0.000232887
0.000233929
0.000234224
0.000234207
0.000234095
0.000233987
0.000233927
0.000233932
0.000234
0.000234115
0.000234232
0.00023425
0.000233954
0.000232909
0.000230252
0.000224351
0.000212243
0.000188919
0.000147738
8.77209e-05
3.46682e-05
2.53085e-05
2.65931e-05
3.81999e-05
9.55209e-05
0.000156118
0.000195336
0.000216577
0.000227068
0.000231834
0.000233749
0.000234335
0.000234363
0.000234197
0.000234006
0.000233859
0.000233783
0.000233785
0.000233866
0.000234017
0.000234208
0.000234371
0.000234336
0.000233739
0.000231815
0.000227042
0.000216546
0.000195295
0.000156051
9.54333e-05
3.81564e-05
2.66048e-05
2.76283e-05
4.11744e-05
0.000101941
0.000162815
0.000200353
0.000219782
0.000228907
0.000232769
0.000234133
0.000234411
0.000234276
0.000234037
0.000233818
0.000233665
0.000233588
0.000233589
0.000233667
0.00023382
0.000234035
0.000234266
0.000234388
0.000234097
0.000232717
0.000228842
0.000219706
0.00020026
0.000162695
0.000101825
4.11254e-05
2.76408e-05
2.84037e-05
4.35131e-05
0.000106881
0.000167863
0.000204021
0.00022204
0.000230124
0.000233321
0.0002343
0.000234375
0.000234149
0.00023388
0.000233659
0.000233512
0.00023344
0.00023344
0.00023351
0.000233653
0.000233865
0.000234123
0.000234334
0.00023424
0.000233243
0.000230029
0.000221927
0.000203884
0.000167686
0.000106742
4.34597e-05
2.84169e-05
2.892e-05
4.51251e-05
0.000110233
0.000171252
0.000206421
0.000223477
0.000230869
0.000233633
0.000234369
0.000234324
0.000234051
0.000233772
0.000233558
0.00023342
0.000233354
0.000233353
0.000233415
0.000233545
0.000233749
0.000234014
0.000234269
0.000234293
0.000233537
0.000230753
0.000223341
0.000206259
0.000171055
0.000110082
4.50687e-05
2.89336e-05
2.91774e-05
4.59477e-05
0.000111928
0.000172946
0.000207605
0.000224177
0.000231223
0.000233775
0.000234395
0.000234295
0.000234002
0.000233721
0.000233512
0.000233381
0.000233319
0.000233316
0.000233373
0.000233496
0.000233693
0.000233959
0.000234233
0.000234311
0.00023367
0.000231098
0.00022403
0.000207434
0.000172743
0.000111771
4.58898e-05
2.91913e-05
2.91763e-05
4.59492e-05
0.000111934
0.000172951
0.000207609
0.000224179
0.000231226
0.000233777
0.000234398
0.000234299
0.000234006
0.000233725
0.000233517
0.000233386
0.000233323
0.000233321
0.000233378
0.000233501
0.000233698
0.000233963
0.000234237
0.000234315
0.000233673
0.000231101
0.000224033
0.000207438
0.000172749
0.000111778
4.58911e-05
2.91902e-05
2.89167e-05
4.51293e-05
0.000110252
0.000171267
0.000206432
0.000223485
0.000230876
0.000233641
0.000234378
0.000234335
0.000234063
0.000233784
0.00023357
0.000233433
0.000233367
0.000233365
0.000233427
0.000233557
0.000233761
0.000234025
0.00023428
0.000234303
0.000233545
0.00023076
0.000223349
0.000206271
0.000171073
0.000110101
4.50724e-05
2.89304e-05
2.83985e-05
4.35195e-05
0.000106913
0.000167891
0.000204043
0.000222055
0.000230137
0.000233334
0.000234315
0.000234392
0.000234167
0.000233898
0.000233677
0.00023353
0.000233458
0.000233458
0.000233528
0.00023367
0.000233883
0.00023414
0.000234349
0.000234254
0.000233255
0.000230039
0.000221939
0.000203904
0.000167717
0.000106774
4.34653e-05
2.84116e-05
2.76214e-05
4.11821e-05
0.000101986
0.000162864
0.00020039
0.000219808
0.000228927
0.000232788
0.000234153
0.000234431
0.000234297
0.000234058
0.000233839
0.000233685
0.000233607
0.000233608
0.000233687
0.00023384
0.000234054
0.000234285
0.000234406
0.000234113
0.000232731
0.000228856
0.000219723
0.000200289
0.000162739
0.000101868
4.11323e-05
2.76336e-05
2.6585e-05
3.82079e-05
9.55777e-05
0.000156187
0.000195391
0.000216617
0.000227098
0.000231859
0.000233771
0.000234357
0.000234384
0.000234217
0.000234024
0.000233876
0.000233799
0.000233801
0.000233883
0.000234034
0.000234226
0.000234389
0.000234353
0.000233756
0.000231831
0.000227059
0.000216568
0.000195332
0.000156106
9.54851e-05
3.81637e-05
2.65961e-05
2.5289e-05
3.47125e-05
8.784e-05
0.000147836
0.00018898
0.000212281
0.000224375
0.000230265
0.000232913
0.000233951
0.000234242
0.000234222
0.000234106
0.000233997
0.000233936
0.00023394
0.000234009
0.000234126
0.000234245
0.000234265
0.00023397
0.000232925
0.00023027
0.000224372
0.000212272
0.000188966
0.000147804
8.77779e-05
3.46748e-05
2.52986e-05
2.37333e-05
3.08322e-05
7.89873e-05
0.00013787
0.000181266
0.000206341
0.00022021
0.000227461
0.000231057
0.000232732
0.000233442
0.000233692
0.000233746
0.000233734
0.00023372
0.000233726
0.000233752
0.000233775
0.00023373
0.000233484
0.000232776
0.000231099
0.0002275
0.000220249
0.000206377
0.000181284
0.000137892
7.89602e-05
3.08015e-05
2.37411e-05
2.19169e-05
2.67229e-05
6.92328e-05
0.000125958
0.000170297
0.000197708
0.000213629
0.000222437
0.000227193
0.000229728
0.000231067
0.00023177
0.000232138
0.000232324
0.000232406
0.000232414
0.000232348
0.000232178
0.000231824
0.000231132
0.000229799
0.000227267
0.000222514
0.000213715
0.000197807
0.000170392
0.00012605
6.92463e-05
2.66998e-05
2.19226e-05
1.98246e-05
2.25449e-05
5.87885e-05
0.000111998
0.000156266
0.000185519
0.000203115
0.000213371
0.000219418
0.000223052
0.000225292
0.000226705
0.000227597
0.00022813
0.000228384
0.000228394
0.00022816
0.000227649
0.000226779
0.000225384
0.000223156
0.000219529
0.000213489
0.000203249
0.000185681
0.000156447
0.000112162
5.88448e-05
2.25302e-05
1.98271e-05
1.74863e-05
1.84191e-05
4.79958e-05
9.58e-05
0.000138345
0.000167706
0.00018565
0.000196924
0.000204329
0.000209289
0.000212743
0.000215185
0.000216873
0.000217944
0.000218469
0.000218482
0.000217981
0.000216939
0.000215282
0.000212869
0.000209435
0.000204485
0.000197089
0.000185829
0.000167926
0.000138578
9.60174e-05
4.80998e-05
1.84131e-05
1.74867e-05
1.4919e-05
1.44816e-05
3.71776e-05
7.67192e-05
0.000113685
0.000139402
0.000156154
0.000167906
0.000176635
0.000182924
0.000187855
0.000191606
0.000194329
0.00019611
0.000196996
0.000197009
0.000196151
0.000194404
0.000191721
0.00018801
0.000183112
0.000176835
0.000168124
0.00015637
0.000139622
0.000113927
7.69561e-05
3.72909e-05
1.44757e-05
1.49172e-05
1.21473e-05
1.08367e-05
2.63218e-05
5.30668e-05
7.854e-05
9.65418e-05
0.000109954
0.000120885
0.000130032
0.000137594
0.000143774
0.000148644
0.000152272
0.000154688
0.0001559
0.00015591
0.000154719
0.000152333
0.000148745
0.000143918
0.000137778
0.000130249
0.000121122
0.000110189
9.67606e-05
7.87555e-05
5.32776e-05
2.64219e-05
1.08278e-05
1.21434e-05
9.21384e-06
7.1134e-06
1.46353e-05
2.63296e-05
3.6999e-05
4.62927e-05
5.47415e-05
6.26277e-05
6.97834e-05
7.60849e-05
8.1449e-05
8.58162e-05
8.91607e-05
9.143e-05
9.25772e-05
9.25789e-05
9.14368e-05
8.91785e-05
8.58559e-05
8.15107e-05
7.6168e-05
6.9886e-05
6.2746e-05
5.48686e-05
4.64183e-05
3.71079e-05
2.64216e-05
1.46727e-05
7.09924e-06
9.20875e-06
5.74097e-06
1.27238e-06
5.15159e-06
9.07121e-06
1.31454e-05
1.70084e-05
2.06474e-05
2.40255e-05
2.70831e-05
2.97969e-05
3.21353e-05
3.40647e-05
3.55626e-05
3.6587e-05
3.71058e-05
3.71043e-05
3.65828e-05
3.55567e-05
3.40588e-05
3.21295e-05
2.97914e-05
2.70785e-05
2.40228e-05
2.06483e-05
1.70094e-05
1.31445e-05
9.0682e-06
5.14598e-06
1.2695e-06
5.73728e-06
3.94634e-06
6.69937e-06
9.36124e-06
1.17479e-05
1.40686e-05
1.6235e-05
1.82016e-05
1.98631e-05
2.12925e-05
2.25142e-05
2.35296e-05
2.43389e-05
2.4937e-05
2.53334e-05
2.55312e-05
2.55312e-05
2.53336e-05
2.49373e-05
2.43391e-05
2.35297e-05
2.25142e-05
2.12921e-05
1.98622e-05
1.81999e-05
1.62323e-05
1.40648e-05
1.17428e-05
9.35517e-06
6.6939e-06
3.9434e-06
3.56898e-06
6.09818e-06
8.69621e-06
1.10571e-05
1.34164e-05
1.56472e-05
1.77053e-05
1.94797e-05
2.1025e-05
2.23462e-05
2.34506e-05
2.43374e-05
2.50149e-05
2.54716e-05
2.57006e-05
2.57002e-05
2.54705e-05
2.50132e-05
2.4336e-05
2.34487e-05
2.23439e-05
2.10228e-05
1.94766e-05
1.77046e-05
1.56504e-05
1.34237e-05
1.10683e-05
8.70985e-06
6.1114e-06
3.57658e-06
5.13679e-06
1.63728e-06
7.51116e-06
1.11205e-05
1.47138e-05
1.77291e-05
2.03124e-05
2.27349e-05
2.4835e-05
2.66375e-05
2.81518e-05
2.93726e-05
3.02864e-05
3.08908e-05
3.11922e-05
3.11924e-05
3.0891e-05
3.02855e-05
2.93683e-05
2.81425e-05
2.66255e-05
2.48242e-05
2.27314e-05
2.03589e-05
1.77966e-05
1.47732e-05
1.11629e-05
7.53077e-06
1.64995e-06
5.14778e-06
8.70371e-06
1.02871e-05
1.3182e-05
1.66273e-05
2.17822e-05
2.72529e-05
3.23479e-05
3.68531e-05
4.09657e-05
4.46418e-05
4.77764e-05
5.02752e-05
5.21662e-05
5.34394e-05
5.40892e-05
5.41122e-05
5.35063e-05
5.22685e-05
5.03843e-05
4.78182e-05
4.46521e-05
4.09556e-05
3.68244e-05
3.23018e-05
2.71706e-05
2.17134e-05
1.65799e-05
1.31834e-05
1.03597e-05
8.71746e-06
1.15796e-05
1.35163e-05
1.77782e-05
2.53603e-05
3.53506e-05
4.60182e-05
5.56861e-05
6.42501e-05
7.18904e-05
7.88315e-05
8.47315e-05
8.94374e-05
9.29278e-05
9.52427e-05
9.64136e-05
9.64551e-05
9.53619e-05
9.31055e-05
8.9634e-05
8.48981e-05
7.89575e-05
7.19455e-05
6.42114e-05
5.55625e-05
4.5848e-05
3.51867e-05
2.52628e-05
1.77726e-05
1.35876e-05
1.15884e-05
1.44226e-05
1.59985e-05
2.26502e-05
3.53357e-05
5.34609e-05
7.25937e-05
8.89335e-05
0.000102034
0.000112743
0.000121979
0.000129479
0.000135265
0.000139339
0.000141961
0.000143257
0.000143279
0.000142022
0.000139422
0.000135343
0.000129535
0.000122011
0.000112671
0.000101839
8.86238e-05
7.22513e-05
5.32193e-05
3.52041e-05
2.25741e-05
1.60639e-05
1.4425e-05
1.71297e-05
1.81992e-05
2.8456e-05
4.64665e-05
7.21736e-05
9.86857e-05
0.000121132
0.000137532
0.000149477
0.000158668
0.000165786
0.000171132
0.000174892
0.000177278
0.000178442
0.000178451
0.0001773
0.000174915
0.000171143
0.000165773
0.000158614
0.000149361
0.000137347
0.000120829
9.83454e-05
7.19049e-05
4.63497e-05
2.83667e-05
1.82601e-05
1.71267e-05
1.96394e-05
2.05723e-05
3.38636e-05
5.78526e-05
8.98953e-05
0.000121359
0.000146076
0.00016366
0.000175908
0.000184609
0.00019091
0.000195439
0.000198555
0.000200502
0.000201439
0.000201441
0.000200505
0.000198553
0.000195426
0.000190881
0.000184559
0.000175833
0.000163551
0.00014591
0.000121132
8.97555e-05
5.784e-05
3.38478e-05
2.05765e-05
1.96339e-05
2.19314e-05
2.30658e-05
3.90227e-05
6.86336e-05
0.000105391
0.000139077
0.000164225
0.000181747
0.000193578
0.000201548
0.000206972
0.000210664
0.000213109
0.000214598
0.000215303
0.000215301
0.000214592
0.000213097
0.000210645
0.000206945
0.000201516
0.000193541
0.000181701
0.000164159
0.00013901
0.000105416
6.87582e-05
3.90427e-05
2.30645e-05
2.19243e-05
2.40297e-05
2.53921e-05
4.39698e-05
7.87565e-05
0.000118674
0.000152773
0.000177403
0.000194117
0.000205076
0.000212155
0.000216717
0.000219651
0.000221501
0.000222588
0.00022309
0.000223087
0.000222578
0.000221485
0.00021963
0.000216695
0.000212138
0.000205068
0.000194117
0.000177413
0.000152818
0.000118826
7.89748e-05
4.4017e-05
2.53952e-05
2.40195e-05
2.58705e-05
2.74835e-05
4.84473e-05
8.75621e-05
0.000130058
0.000163546
0.000187071
0.000202616
0.000212503
0.000218641
0.000222401
0.000224682
0.000226039
0.0002268
0.000227139
0.000227135
0.000226788
0.000226022
0.000224663
0.000222387
0.00021864
0.000212518
0.000202651
0.00018713
0.000163645
0.00013023
8.78188e-05
4.85128e-05
2.74915e-05
2.58598e-05
2.74312e-05
2.93068e-05
5.23341e-05
9.47862e-05
0.000138548
0.000171662
0.000194095
0.000208458
0.00021729
0.000222553
0.000225612
0.000227354
0.000228323
0.000228832
0.000229048
0.000229044
0.000228822
0.00022831
0.000227343
0.00022561
0.000222568
0.000217329
0.000208524
0.000194191
0.000171798
0.000138749
9.50557e-05
5.24117e-05
2.93189e-05
2.74204e-05
2.86967e-05
3.08237e-05
5.5563e-05
0.000100535
0.000144968
0.000177622
0.000199099
0.000212433
0.000220356
0.000224882
0.000227374
0.000228697
0.000229374
0.000229699
0.000229828
0.000229826
0.000229693
0.000229368
0.000228698
0.000227388
0.000224917
0.000220418
0.000212525
0.000199222
0.000177783
0.000145182
0.000100796
5.56469e-05
3.08394e-05
2.86857e-05
2.96554e-05
3.19989e-05
5.80757e-05
0.0001049
0.000149663
0.000181845
0.000202536
0.000215059
0.000222276
0.00022624
0.00022831
0.000229331
0.000229802
0.000230002
0.000230072
0.000230071
0.000230001
0.000229805
0.000229343
0.000228339
0.000226293
0.000222357
0.000215171
0.000202678
0.000182017
0.000149869
0.000105124
5.81606e-05
3.20174e-05
2.96442e-05
3.02993e-05
3.28012e-05
5.97992e-05
0.000107862
0.000152768
0.000184569
0.000204698
0.000216659
0.000223396
0.000226985
0.000228778
0.000229604
0.000229947
0.000230069
0.000230104
0.000230105
0.000230073
0.000229957
0.000229627
0.000228819
0.000227052
0.000223492
0.000216784
0.00020485
0.000184746
0.000152968
0.000108074
5.98837e-05
3.28215e-05
3.02878e-05
3.06228e-05
3.32075e-05
6.06748e-05
0.000109353
0.000154315
0.000185908
0.000205743
0.000217416
0.00022391
0.000227311
0.000228966
0.000229698
0.000229978
0.000230064
0.000230082
0.000230083
0.000230071
0.000229994
0.000229727
0.000229016
0.000227386
0.000224014
0.000217548
0.0002059
0.000186086
0.000154512
0.000109557
6.07584e-05
3.32286e-05
3.06112e-05
3.06235e-05
3.32054e-05
6.06737e-05
0.000109352
0.000154316
0.000185909
0.000205742
0.000217414
0.000223905
0.000227304
0.000228958
0.000229688
0.000229968
0.000230053
0.00023007
0.000230073
0.00023006
0.000229984
0.000229719
0.000229009
0.000227381
0.00022401
0.000217546
0.000205899
0.000186085
0.00015451
0.000109553
6.07564e-05
3.32266e-05
3.06119e-05
3.03013e-05
3.2795e-05
5.97957e-05
0.00010786
0.00015277
0.000184572
0.000204697
0.000216652
0.000223382
0.000226965
0.000228753
0.000229576
0.000229916
0.000230037
0.000230071
0.000230073
0.000230043
0.00022993
0.000229603
0.000228799
0.000227036
0.000223481
0.000216778
0.000204847
0.000184743
0.000152962
0.00010806
5.98774e-05
3.28154e-05
3.02897e-05
2.96588e-05
3.19888e-05
5.80694e-05
0.000104897
0.000149668
0.00018185
0.000202536
0.000215049
0.000222255
0.00022621
0.000228272
0.000229287
0.000229755
0.000229953
0.000230023
0.000230023
0.000229956
0.000229764
0.000229306
0.000228308
0.00022627
0.000222342
0.000215163
0.000202675
0.000182014
0.000149858
0.000105101
5.81499e-05
3.20075e-05
2.96474e-05
2.87011e-05
3.08101e-05
5.55529e-05
0.000100537
0.000144976
0.000177628
0.000199098
0.000212421
0.000220332
0.000224846
0.000227328
0.000228645
0.000229317
0.00022964
0.000229768
0.000229767
0.000229638
0.000229318
0.000228654
0.000227351
0.00022489
0.000220401
0.000212517
0.000199221
0.00017778
0.000145167
0.000100764
5.56315e-05
3.08262e-05
2.869e-05
2.74365e-05
2.92903e-05
5.23203e-05
9.47899e-05
0.000138554
0.000171665
0.000194093
0.000208446
0.000217266
0.000222517
0.000225566
0.0002273
0.000228264
0.000228771
0.000228987
0.000228985
0.000228766
0.000228259
0.000227299
0.000225575
0.000222544
0.000217315
0.000208519
0.000194191
0.000171794
0.000138728
9.5013e-05
5.23916e-05
2.93032e-05
2.74259e-05
2.58764e-05
2.74652e-05
4.84299e-05
8.7565e-05
0.000130054
0.00016354
0.000187065
0.000202605
0.000212484
0.000218613
0.000222363
0.000224637
0.00022599
0.000226748
0.000227087
0.000227084
0.000226741
0.00022598
0.000224628
0.000222361
0.000218623
0.000212512
0.000202652
0.000187131
0.000163634
0.000130197
8.77667e-05
4.84899e-05
2.74743e-05
2.58664e-05
2.4036e-05
2.53734e-05
4.39491e-05
7.87536e-05
0.000118649
0.000152751
0.000177391
0.000194111
0.000205067
0.000212139
0.000216695
0.000219624
0.000221472
0.000222557
0.000223059
0.000223056
0.00022255
0.000221461
0.000219612
0.000216684
0.000212136
0.000205073
0.000194126
0.000177415
0.000152796
0.000118763
7.89136e-05
4.39934e-05
2.53788e-05
2.40269e-05
2.19377e-05
2.30498e-05
3.89977e-05
6.86178e-05
0.000105345
0.000139034
0.000164203
0.000181743
0.000193579
0.00020155
0.000206971
0.000210663
0.000213107
0.000214597
0.000215302
0.000215301
0.000214593
0.000213098
0.000210649
0.000206953
0.00020153
0.00019356
0.000181718
0.000164164
0.000138987
0.000105352
6.86994e-05
3.90189e-05
2.30525e-05
2.193e-05
1.96433e-05
2.05642e-05
3.38288e-05
5.78158e-05
8.98278e-05
0.000121276
0.000146035
0.00016365
0.000175914
0.000184624
0.000190932
0.000195466
0.000198587
0.000200538
0.000201476
0.000201476
0.000200538
0.000198582
0.000195452
0.000190904
0.000184583
0.000175858
0.00016357
0.000145911
0.000121098
8.97043e-05
5.7796e-05
3.38204e-05
2.0569e-05
1.9639e-05
1.71374e-05
1.82351e-05
2.83854e-05
4.64161e-05
7.2101e-05
9.85986e-05
0.00012106
0.000137506
0.000149479
0.000158697
0.000165829
0.000171191
0.000174963
0.000177355
0.000178519
0.000178524
0.000177365
0.00017497
0.000171183
0.000165797
0.000158631
0.000149377
0.00013736
0.00012082
9.83283e-05
7.18814e-05
4.63167e-05
2.8317e-05
1.82851e-05
1.71358e-05
1.44317e-05
1.60328e-05
2.25993e-05
3.5308e-05
5.34174e-05
7.25374e-05
8.88901e-05
0.000102015
0.000112766
0.000122054
0.000129549
0.000135366
0.000139458
0.000142083
0.000143375
0.000143387
0.000142116
0.000139496
0.00013539
0.000129545
0.000122007
0.000112667
0.000101835
8.86328e-05
7.22622e-05
5.32252e-05
3.51998e-05
2.25388e-05
1.60858e-05
1.44344e-05
1.15895e-05
1.35525e-05
1.77855e-05
2.53339e-05
3.53285e-05
4.59957e-05
5.56789e-05
6.42722e-05
7.19469e-05
7.89194e-05
8.48464e-05
8.95925e-05
9.30958e-05
9.54044e-05
9.65615e-05
9.65863e-05
9.54734e-05
9.319e-05
8.9681e-05
8.49218e-05
7.89666e-05
7.19474e-05
6.42154e-05
5.55673e-05
4.58579e-05
3.5199e-05
2.5256e-05
1.7778e-05
1.3609e-05
1.15972e-05
8.71317e-06
1.03177e-05
1.3186e-05
1.65981e-05
2.17361e-05
2.71955e-05
3.23211e-05
3.68322e-05
4.09521e-05
4.46419e-05
4.78049e-05
5.03705e-05
5.22678e-05
5.35351e-05
5.41772e-05
5.41919e-05
5.35767e-05
5.23237e-05
5.039e-05
4.78064e-05
4.46318e-05
4.09302e-05
3.67993e-05
3.22718e-05
2.71301e-05
2.1683e-05
1.65605e-05
1.31843e-05
1.03713e-05
8.72394e-06
5.14352e-06
1.64197e-06
7.51974e-06
1.11388e-05
1.47432e-05
1.77629e-05
2.03278e-05
2.2715e-05
2.4809e-05
2.66106e-05
2.81253e-05
2.93469e-05
3.02552e-05
3.08566e-05
3.11565e-05
3.1156e-05
3.08548e-05
3.02514e-05
2.93385e-05
2.81134e-05
2.65968e-05
2.47958e-05
2.27096e-05
2.03734e-05
1.78159e-05
1.47885e-05
1.11708e-05
7.53519e-06
1.6519e-06
5.15249e-06
3.57319e-06
6.10539e-06
8.70483e-06
1.10661e-05
1.34254e-05
1.56556e-05
1.77127e-05
1.9486e-05
2.10289e-05
2.23502e-05
2.34548e-05
2.43424e-05
2.50242e-05
2.54818e-05
2.57112e-05
2.5711e-05
2.54815e-05
2.50237e-05
2.43419e-05
2.34542e-05
2.23494e-05
2.10282e-05
1.94857e-05
1.77146e-05
1.56604e-05
1.34329e-05
1.10761e-05
8.71624e-06
6.11607e-06
3.57933e-06
3.36592e-06
5.72608e-06
8.24816e-06
1.05778e-05
1.29204e-05
1.51355e-05
1.71679e-05
1.89067e-05
2.04223e-05
2.17434e-05
2.28542e-05
2.37487e-05
2.44178e-05
2.48636e-05
2.5087e-05
2.50872e-05
2.48644e-05
2.44191e-05
2.37502e-05
2.28562e-05
2.17458e-05
2.04247e-05
1.89101e-05
1.71691e-05
1.51328e-05
1.2914e-05
1.05682e-05
8.23701e-06
5.71451e-06
3.35911e-06
4.87616e-06
2.50894e-06
1.06727e-05
1.5915e-05
2.09798e-05
2.54947e-05
2.93515e-05
3.2336e-05
3.46258e-05
3.63392e-05
3.76177e-05
3.8563e-05
3.92402e-05
3.96829e-05
3.99046e-05
3.99104e-05
3.97002e-05
3.92688e-05
3.86023e-05
3.76665e-05
3.63952e-05
3.46861e-05
3.2395e-05
2.93657e-05
2.5474e-05
2.09471e-05
1.58866e-05
1.06602e-05
2.4871e-06
4.86584e-06
8.28684e-06
1.30427e-05
1.73058e-05
2.10517e-05
2.40328e-05
2.7125e-05
3.01661e-05
3.30808e-05
3.59052e-05
3.83732e-05
4.04713e-05
4.22018e-05
4.35216e-05
4.4414e-05
4.48684e-05
4.48797e-05
4.4448e-05
4.35792e-05
4.22883e-05
4.06109e-05
3.85393e-05
3.60816e-05
3.32444e-05
3.0257e-05
2.71861e-05
2.4076e-05
2.10854e-05
1.72992e-05
1.2959e-05
8.27276e-06
1.10622e-05
1.81667e-05
2.32989e-05
2.48694e-05
2.87193e-05
3.48181e-05
4.15416e-05
4.78235e-05
5.3217e-05
5.75552e-05
6.12269e-05
6.4266e-05
6.66307e-05
6.82396e-05
6.90506e-05
6.9046e-05
6.82259e-05
6.66094e-05
6.42443e-05
6.12174e-05
5.7565e-05
5.32552e-05
4.78867e-05
4.15581e-05
3.47747e-05
2.87613e-05
2.49027e-05
2.32756e-05
1.81008e-05
1.10515e-05
1.38012e-05
2.21234e-05
2.63873e-05
2.95507e-05
3.84447e-05
5.11351e-05
6.2672e-05
7.21415e-05
7.98842e-05
8.62744e-05
9.15163e-05
9.58057e-05
9.9423e-05
0.000101937
0.000103211
0.000103212
0.000101941
9.94327e-05
9.58298e-05
9.15643e-05
8.63886e-05
8.00787e-05
7.24097e-05
6.29557e-05
5.11738e-05
3.83485e-05
2.95773e-05
2.64159e-05
2.20754e-05
1.37963e-05
1.64297e-05
2.55932e-05
2.86353e-05
3.5921e-05
5.13699e-05
6.96519e-05
8.72137e-05
0.000101804
0.00011343
0.000122405
0.000129327
0.000134649
0.00013867
0.000141362
0.000142689
0.000142699
0.000141394
0.000138719
0.000134731
0.000129462
0.000122626
0.000113756
0.000102242
8.77927e-05
6.99939e-05
5.14506e-05
3.597e-05
2.86953e-05
2.5564e-05
1.64304e-05
1.89037e-05
2.82784e-05
3.10653e-05
4.37118e-05
6.38056e-05
8.76198e-05
0.000110863
0.000129408
0.000142969
0.000152866
0.000160124
0.00016543
0.000169207
0.000171651
0.000172853
0.000172871
0.000171705
0.000169297
0.000165563
0.000160308
0.000153111
0.000143277
0.000129793
0.000111335
8.80647e-05
6.39846e-05
4.37644e-05
3.11508e-05
2.83059e-05
1.89071e-05
2.11865e-05
3.03673e-05
3.42669e-05
5.11058e-05
7.52e-05
0.000104021
0.000130445
0.000150462
0.00016482
0.00017496
0.00018209
0.000187066
0.000190446
0.000192558
0.000193581
0.000193602
0.000192619
0.000190549
0.00018721
0.000182273
0.00017518
0.000165074
0.000150749
0.000130741
0.00010426
7.52814e-05
5.10831e-05
3.4406e-05
3.04001e-05
2.11909e-05
2.32234e-05
3.20297e-05
3.76217e-05
5.74047e-05
8.52411e-05
0.000118146
0.00014563
0.000165952
0.000180298
0.000190203
0.000196952
0.000201484
0.000204439
0.000206224
0.000207072
0.000207092
0.000206284
0.000204538
0.000201618
0.000197115
0.000190387
0.000180492
0.000166146
0.000145799
0.000118231
8.51916e-05
5.73332e-05
3.77511e-05
3.20532e-05
2.32291e-05
2.50158e-05
3.33862e-05
4.09095e-05
6.33477e-05
9.5063e-05
0.000129835
0.000157325
0.000177262
0.000191119
0.000200503
0.000206729
0.000210773
0.000213316
0.0002148
0.00021549
0.000215508
0.000214853
0.000213402
0.000210887
0.000206862
0.000200645
0.000191258
0.000177384
0.000157408
0.000129845
9.49799e-05
6.32513e-05
4.10147e-05
3.33998e-05
2.50215e-05
2.65446e-05
3.44982e-05
4.39126e-05
6.86317e-05
0.000103649
0.000138996
0.000166148
0.000185432
0.000198606
0.000207354
0.000213016
0.000216582
0.000218747
0.000219969
0.000220524
0.000220538
0.000220012
0.000218815
0.000216669
0.000213114
0.000207453
0.000198694
0.000185495
0.000166169
0.000138955
0.000103536
6.85236e-05
4.39885e-05
3.4503e-05
2.65502e-05
2.77913e-05
3.53964e-05
4.64749e-05
7.30366e-05
0.000110544
0.000145995
0.000172634
0.00019122
0.0002037
0.000211827
0.000216962
0.000220103
0.000221946
0.000222952
0.000223397
0.000223407
0.000222983
0.000221994
0.000220163
0.000217026
0.000211885
0.000203742
0.000191234
0.000172608
0.000145917
0.000110415
7.29266e-05
4.65228e-05
3.53938e-05
2.7797e-05
2.87403e-05
3.60833e-05
4.84282e-05
7.63597e-05
0.000115659
0.000151054
0.000177191
0.000195163
0.000207048
0.000214651
0.000219353
0.000222154
0.000223747
0.000224588
0.000224949
0.000224956
0.000224608
0.000223777
0.00022219
0.000219387
0.000214675
0.000207053
0.00019514
0.000177132
0.000150955
0.000115531
7.62718e-05
4.84527e-05
3.60749e-05
2.87462e-05
2.93794e-05
3.65515e-05
4.97571e-05
7.85609e-05
0.000119022
0.000154337
0.000180096
0.000197619
0.000209075
0.000216305
0.000220702
0.000223266
0.000224689
0.000225419
0.000225725
0.000225729
0.000225432
0.000224707
0.000223285
0.000220715
0.000216305
0.000209055
0.000197571
0.000180017
0.000154226
0.000118894
7.84755e-05
4.97759e-05
3.65396e-05
2.93856e-05
2.97006e-05
3.67904e-05
5.04349e-05
7.96686e-05
0.00012069
0.000155955
0.000181514
0.000198802
0.000210035
0.000217072
0.000221311
0.000223755
0.000225091
0.000225766
0.000226043
0.000226047
0.000225774
0.000225102
0.000223765
0.000221313
0.000217059
0.000210002
0.000198743
0.000181426
0.00015584
0.000120564
7.95852e-05
5.04521e-05
3.67769e-05
2.9707e-05
2.96999e-05
3.67928e-05
5.04366e-05
7.96734e-05
0.000120696
0.000155962
0.000181522
0.000198812
0.000210045
0.000217082
0.000221322
0.000223765
0.0002251
0.000225774
0.000226051
0.000226054
0.000225782
0.00022511
0.000223773
0.000221322
0.000217069
0.000210012
0.000198753
0.000181435
0.00015585
0.000120573
7.95919e-05
5.04537e-05
3.67796e-05
2.97065e-05
2.93775e-05
3.65588e-05
4.97624e-05
7.85752e-05
0.000119039
0.000154358
0.000180122
0.000197648
0.000209107
0.000216337
0.000220733
0.000223296
0.000224716
0.000225444
0.000225748
0.000225752
0.000225455
0.000224731
0.000223311
0.000220742
0.000216334
0.000209084
0.000197601
0.000180045
0.000154254
0.00011892
7.8496e-05
4.97811e-05
3.65476e-05
2.93841e-05
2.87374e-05
3.60952e-05
4.84392e-05
7.6384e-05
0.000115688
0.00015109
0.000177236
0.000195213
0.000207101
0.000214704
0.000219404
0.000222202
0.000223791
0.000224628
0.000224987
0.000224993
0.000224646
0.000223817
0.000222231
0.000219432
0.000214722
0.000207101
0.000195188
0.00017718
0.000151
0.000115575
7.63078e-05
4.84625e-05
3.60878e-05
2.87437e-05
2.77875e-05
3.54134e-05
4.65052e-05
7.30685e-05
0.000110585
0.000146048
0.000172698
0.000191292
0.000203775
0.0002119
0.000217032
0.000220168
0.000222006
0.000223007
0.000223448
0.000223457
0.000223033
0.000222047
0.000220218
0.000217085
0.000211948
0.000203808
0.000191301
0.000172673
0.000145981
0.000110479
7.29799e-05
4.65439e-05
3.54114e-05
2.77936e-05
2.65402e-05
3.45198e-05
4.39584e-05
6.86705e-05
0.000103703
0.000139069
0.000166235
0.000185527
0.000198702
0.000207447
0.000213104
0.000216664
0.000218821
0.000220037
0.000220587
0.000220599
0.000220073
0.000218878
0.000216737
0.000213186
0.00020753
0.000198775
0.000185578
0.000166253
0.000139039
0.000103621
6.85941e-05
4.40214e-05
3.45248e-05
2.6546e-05
2.5011e-05
3.34117e-05
4.09703e-05
6.33908e-05
9.51352e-05
0.000129936
0.000157441
0.00017738
0.000191234
0.000200613
0.000206832
0.000210868
0.000213402
0.000214879
0.000215564
0.000215579
0.000214924
0.000213474
0.000210963
0.000206943
0.000200732
0.000191351
0.000177483
0.000157513
0.000129957
9.50901e-05
6.33333e-05
4.10536e-05
3.34245e-05
2.50167e-05
2.32186e-05
3.20586e-05
3.7695e-05
5.74505e-05
8.53522e-05
0.00011829
0.00014578
0.000166095
0.000180431
0.000190327
0.000197066
0.000201589
0.000204535
0.000206312
0.000207154
0.000207172
0.000206364