/*--------------------------------*- C++ -*----------------------------------*\
| =========                 |                                                 |
| \\      /  F ield         | OpenFOAM: The Open Source CFD Toolbox           |
|  \\    /   O peration     | Version:  2312                                  |
|   \\  /    A nd           | Website:  www.openfoam.com                      |
|    \\/     M anipulation  |                                                 |
\*---------------------------------------------------------------------------*/
FoamFile
{
    version     2.0;
    format      ascii;
    arch        "LSB;label=32;scalar=64";
    class       surfaceScalarField;
    location    "950";
    object      phi;
}
// * * * * * * * * * * * * * * * * * * * * * * * * * * * * * * * * * * * * * //

dimensions      [1 0 -1 0 0 0 0];

oriented        oriented;

internalField   nonuniform List<scalar> 
78300
(
-7.42641e-05
0.000288767
0.00754489
0.0027266
0.00127678
0.00976041
0.00267452
0.00469127
0.0149982
0.00292933
0.00526715
0.019603
0.0031456
0.00587635
0.0241776
0.00328362
0.00640261
0.0285037
0.0033227
0.00686829
0.0325133
0.00324691
0.00725824
0.0361924
0.00304588
0.00757026
0.0395153
0.00273109
0.00781131
0.0424337
0.00232229
0.00799269
0.0449109
0.00184046
0.00812517
0.0469206
0.001305
0.0082181
0.0484434
0.000734266
0.0082775
0.0494656
0.000145957
0.00830664
0.0499786
-0.000442757
0.00830733
0.0499783
-0.00101468
0.00827959
0.0494647
-0.00155182
0.0082214
0.0484418
-0.00203538
0.00812929
0.0469182
-0.00244542
0.00799715
0.0449077
-0.00276063
0.00781555
0.0424299
-0.00296233
0.00757499
0.0395112
-0.00304129
0.00726535
0.0361884
-0.00301301
0.00688162
0.0325108
-0.00289828
0.00642623
0.0285034
-0.0027262
0.00591832
0.0241798
-0.00252969
0.00532064
0.0196078
-0.00264717
0.00475019
0.0150046
9.68942e-05
0.00132628
0.00976771
0.000303683
0.0075526
0.00316274
0.00442596
0.00972177
0.00534244
0.00407772
0.017909
0.00634577
0.00725935
0.0249166
0.00653851
0.00814468
0.0307154
0.00651892
0.00869661
0.0359523
0.00636669
0.00911977
0.0407972
0.00610439
0.0094666
0.0452513
0.00572294
0.00975765
0.0492871
0.00521352
0.00999189
0.0528815
0.00457923
0.01017
0.0560101
0.0038363
0.0102984
0.058648
0.00300661
0.0103868
0.0607768
0.00211316
0.010445
0.0623836
0.00117821
0.0104803
0.0634595
0.000222146
0.0104979
0.0639987
-0.000735204
0.0105001
0.0639985
-0.00167383
0.0104868
0.0634588
-0.0025734
0.0104557
0.0623823
-0.00341192
0.0104019
0.0607747
-0.00416684
0.0103182
0.0586447
-0.00481807
0.0101955
0.0560058
-0.00535151
0.0100255
0.0528767
-0.00576677
0.00980333
0.0492823
-0.00607625
0.00953006
0.0452484
-0.00629194
0.00920456
0.0407995
-0.00638735
0.00880458
0.0359621
-0.00627843
0.00826482
0.0307326
-0.00534739
0.00736924
0.024938
-0.00318655
0.0041238
0.0179313
0.00440873
0.00973011
0.0068499
0.00393376
0.0199089
0.00951045
0.00603962
0.0273043
0.010259
0.00871236
0.0351256
0.00994535
0.00951159
0.0413844
0.00930296
0.00987732
0.0466913
0.00858793
0.0101052
0.0514059
0.0078495
0.0102842
0.0556735
0.00708095
0.0104415
0.0595207
0.0062632
0.0105776
0.0629377
0.00538413
0.010686
0.0659062
0.00444267
0.0107649
0.0684075
0.00344579
0.0108179
0.0704262
0.00240542
0.0108511
0.0719502
0.00133509
0.0108706
0.0729708
0.000248843
0.0108814
0.0734824
-0.000839073
0.0108855
0.0734821
-0.00191491
0.0108834
0.07297
-0.00296471
0.0108726
0.0719488
-0.0039757
0.0108488
0.0704244
-0.0049373
0.0108065
0.0684058
-0.00584449
0.0107408
0.0659051
-0.00670048
0.0106491
0.0629381
-0.0075192
0.010534
0.0595241
-0.00831957
0.0104006
0.0556825
-0.00910861
0.0102468
0.0514231
-0.00982809
0.010037
0.0467166
-0.010212
0.00967283
0.0414135
-0.00950356
0.00883739
0.0351506
-0.00686779
0.00609105
0.0273238
0.00388956
0.019918
0.00699189
0.00440354
0.0279106
0.0101519
0.00685652
0.0368533
0.0110561
0.00921016
0.0446359
0.0108302
0.00989282
0.0508107
0.0101317
0.0101767
0.0559867
0.00927393
0.0103117
0.0605273
0.00836943
0.0103944
0.0646022
0.00744592
0.0104634
0.0682623
0.00650283
0.0105259
0.0715092
0.00553233
0.0105788
0.0743293
0.00452899
0.0106181
0.0767067
0.00349268
0.0106437
0.0786268
0.00242789
0.0106587
0.0800775
0.00134205
0.0106677
0.0810497
0.000244405
0.0106742
0.0815373
-0.000855759
0.0106809
0.0815372
-0.00194876
0.0106877
0.0810496
-0.00302609
0.0106927
0.0800776
-0.00408123
0.0106928
0.0786274
-0.00511106
0.0106843
0.0767085
-0.00611714
0.010665
0.0743334
-0.00710591
0.0106353
0.071517
-0.00808532
0.0105982
0.0682758
-0.00905514
0.0105548
0.0646235
-0.00998261
0.0104929
0.0605575
-0.0107486
0.0103675
0.056023
-0.0110261
0.0100714
0.0508449
-0.010149
0.00934105
0.0446571
-0.00699088
0.00689788
0.0368653
0.00435587
0.0279151
0.00789582
0.00465011
0.0360762
0.0108463
0.00734226
0.0460459
0.011497
0.00931025
0.0537537
0.0111952
0.00983675
0.0596156
0.0104796
0.010048
0.0645597
0.00958795
0.0101289
0.0689267
0.00862294
0.0101583
0.072846
0.00762777
0.0101717
0.0763592
0.0066167
0.0101811
0.0794709
0.00559154
0.010188
0.0821717
0.00455004
0.010191
0.0844482
0.00349042
0.0101902
0.0862872
0.00241377
0.0101872
0.0876771
0.00132339
0.0101856
0.0886089
0.000224288
0.0101883
0.0890764
-0.000877584
0.0101974
0.0890767
-0.0019766
0.0102132
0.0886098
-0.00306831
0.0102344
0.0876789
-0.00414989
0.0102581
0.0862903
-0.00522141
0.010282
0.0844534
-0.00628498
0.0103043
0.0821801
-0.00734306
0.0103245
0.0794839
-0.00839265
0.010342
0.0763782
-0.00941631
0.0103518
0.0728717
-0.0103667
0.0103372
0.0689583
-0.0111339
0.0102566
0.0645934
-0.011472
0.0100235
0.0596437
-0.0108361
0.00944338
0.0537663
-0.00788979
0.00738706
0.0460466
0.0046098
0.0360749
0.00854498
0.00475395
0.0440398
0.0113168
0.00748107
0.0548571
0.0117598
0.00912201
0.0623598
0.011369
0.00951976
0.0679099
0.0106334
0.0096649
0.072623
0.00973443
0.00970381
0.0768214
0.00875314
0.00969692
0.0806012
0.00773016
0.00967253
0.0839893
0.00668587
0.00964265
0.0869873
0.00562903
0.00961182
0.0895871
0.00456154
0.00958241
0.0917773
0.00348359
0.00955583
0.093546
0.00239502
0.0095348
0.0948828
0.00129756
0.00952211
0.095779
0.000193692
0.00952075
0.0962288
-0.000913276
0.00953248
0.0962293
-0.00202025
0.00955763
0.0957806
-0.00312478
0.009595
0.0948857
-0.0042259
0.00964222
0.0935508
-0.00532363
0.00969652
0.0917844
-0.0064178
0.00975506
0.0895975
-0.00750533
0.00981482
0.0870018
-0.00857547
0.00987086
0.0840085
-0.0096048
0.00991483
0.0806248
-0.010548
0.00993021
0.0768475
-0.0113192
0.00988443
0.0726478
-0.0117329
0.00971228
0.067927
-0.0112989
0.00926101
0.0623629
-0.00853029
0.00753747
0.0548487
0.00473373
0.0440344
0.00903063
0.00471533
0.0516782
0.0116039
0.00734519
0.0631397
0.0118975
0.00869797
0.0703904
0.0114471
0.0089962
0.0756666
0.0107009
0.00908709
0.0801741
0.00980603
0.00909257
0.0842149
0.00882673
0.00905867
0.0878647
0.00779806
0.00900725
0.091139
0.00674085
0.00894854
0.0940355
0.00566646
0.00888879
0.0965459
0.00458057
0.00883255
0.0986598
0.0034852
0.0087838
0.100366
0.00238164
0.00874615
0.101656
0.00127103
0.00872322
0.10252
0.000155168
0.00871798
0.102954
-0.000963759
0.00873216
0.102954
-0.00208366
0.00876614
0.102522
-0.00320274
0.00881852
0.101659
-0.00431978
0.00888671
0.100371
-0.00543322
0.00896681
0.0986672
-0.00653998
0.00905425
0.0965561
-0.00763302
0.00914329
0.0940487
-0.00869853
0.00922617
0.0911552
-0.00971278
0.00929324
0.087883
-0.0106376
0.00933074
0.0842331
-0.0114058
0.00931393
0.0801887
-0.0118685
0.00919432
0.0756733
-0.0115799
0.00884602
0.0703863
-0.00901268
0.0074192
0.0631281
0.00472232
0.0516689
0.00938953
0.00453281
0.0588504
0.0117818
0.00697305
0.0707861
0.0119603
0.00807585
0.0777822
0.0114713
0.00829392
0.0828204
0.0107222
0.00834238
0.0871474
0.0098372
0.00832196
0.0910448
0.00886835
0.00826859
0.0945738
0.00784519
0.00819844
0.097743
0.00678647
0.00812001
0.100547
0.00570408
0.00803991
0.102978
0.00460516
0.00796419
0.105023
0.00349399
0.00789842
0.106675
0.00237314
0.00784777
0.107922
0.00124483
0.00781658
0.108758
0.000111386
0.00780819
0.109177
-0.00102479
0.00782451
0.109178
-0.00216113
0.00786573
0.10876
-0.00329523
0.00793023
0.107925
-0.00442439
0.00801461
0.106679
-0.00554527
0.00811391
0.10503
-0.00665249
0.0082217
0.102986
-0.00773707
0.00833014
0.100558
-0.00878527
0.00843044
0.0977549
-0.00977616
0.00851291
0.094586
-0.0106782
0.00856664
0.0910554
-0.0114385
0.00857402
0.0871537
-0.0119326
0.00849793
0.0828196
-0.011757
0.00823526
0.0777737
-0.00937341
0.00706815
0.0707737
0.0045664
0.0588399
0.00966372
0.00420756
0.0654137
0.0118947
0.00639748
0.0777033
0.0119821
0.00728267
0.0844615
0.0114651
0.00743547
0.0892939
0.010716
0.00745112
0.0934636
0.00984225
0.00741127
0.0972325
0.008887
0.00734469
0.100652
0.00787462
0.0072628
0.103725
0.00682086
0.00717258
0.106446
0.00573656
0.00708033
0.108805
0.0046293
0.00699272
0.110791
0.00350444
0.00691642
0.112393
0.00236629
0.00685744
0.113603
0.00121859
0.00682091
0.114414
6.50684e-05
0.00681055
0.114822
-0.00109047
0.00682839
0.114822
-0.00224405
0.00687444
0.114416
-0.00339164
0.00694677
0.113606
-0.00452892
0.00704129
0.112397
-0.00565075
0.007152
0.110796
-0.0067505
0.00727131
0.108811
-0.00781928
0.00739047
0.106454
-0.00884487
0.00750038
0.103733
-0.00981032
0.00759229
0.100658
-0.0106906
0.00765792
0.0972371
-0.0114425
0.0076851
0.093464
-0.0119596
0.00764494
0.0892886
-0.0118735
0.00745393
0.084451
-0.00965101
0.00651319
0.0776912
0.00426415
0.0654034
0.00987087
0.00375211
0.0712501
0.011965
0.00564542
0.0838052
0.0119814
0.0063402
0.0903515
0.0114427
0.00644036
0.0950097
0.0106944
0.00643114
0.0990441
0.00983086
0.00637805
0.1027
0.0088893
0.00630336
0.106022
0.00788927
0.0062157
0.10901
0.0068434
0.00612047
0.111658
0.00576072
0.00602354
0.113954
0.00464835
0.00593144
0.115887
0.00351243
0.00585107
0.117447
0.00235852
0.00578888
0.118626
0.00119212
0.00575034
0.119415
1.88731e-05
0.0057393
0.119812
-0.00115539
0.0057578
0.119812
-0.00232483
0.00580582
0.119416
-0.00348343
0.00588107
0.118627
-0.00462513
0.0059791
0.11745
-0.00574361
0.00609346
0.115891
-0.00683192
0.00621615
0.113958
-0.00788209
0.00633836
0.111662
-0.00888439
0.00645151
0.109014
-0.00982606
0.00654823
0.106024
-0.0106874
0.0066221
0.102701
-0.0114322
0.00666465
0.0990409
-0.011967
0.00665355
0.0950021
-0.0119498
0.00652165
0.0903404
-0.00986214
0.00577884
0.083794
0.00382702
0.0712405
0.0100249
0.0031827
0.0762634
0.0120065
0.0047437
0.0890145
0.0119686
0.00526949
0.0953801
0.0114138
0.00532731
0.0998945
0.0106665
0.00530006
0.103816
0.00981194
0.00523925
0.107376
0.00888247
0.00516142
0.110614
0.00789404
0.00507311
0.113529
0.00685632
0.00497881
0.116114
0.00577658
0.00488357
0.118357
0.00466116
0.00479349
0.120245
0.0035164
0.00471505
0.12177
0.00234896
0.00465452
0.122921
0.00116602
0.00461709
0.123693
-2.48106e-05
0.00460657
0.12408
-0.00121564
0.00462485
0.12408
-0.00239847
0.0046718
0.123693
-0.00356541
0.00474511
0.122922
-0.004709
0.00484039
0.121771
-0.0058221
0.0049513
0.120247
-0.006898
0.00507025
0.118359
-0.00793015
0.00518916
0.116116
-0.0089114
0.00530036
0.113531
-0.00983238
0.00539771
0.110614
-0.0106778
0.00547627
0.107374
-0.0114163
0.00552968
0.103811
-0.0119636
0.0055414
0.0998861
-0.0119978
0.0054581
0.0953694
-0.0100198
0.00489072
0.0890045
0.00327172
0.0762544
0.0101366
0.0025188
0.080372
0.0120299
0.00371972
0.0932648
0.0119521
0.00409255
0.0994837
0.0113859
0.00411635
0.103884
0.0106397
0.00407718
0.107714
0.00979262
0.00401329
0.111196
0.00887313
0.0039367
0.114365
0.0078943
0.00385232
0.117222
0.0068636
0.00376388
0.119755
0.0057866
0.00367575
0.121954
0.00466894
0.00359316
0.123806
0.00351701
0.00352174
0.125301
0.00233834
0.00346695
0.126431
0.00114147
0.00343339
0.127188
-6.41869e-05
0.00342435
0.127568
-0.00126878
0.00344147
0.127568
-0.0024624
0.00348459
0.127188
-0.00363563
0.00355165
0.126432
-0.00477977
0.00363867
0.125302
-0.00588732
0.00374017
0.123807
-0.00695206
0.00384954
0.121954
-0.00796869
0.00395985
0.119755
-0.0089323
0.00406477
0.117221
-0.00983625
0.00415909
0.114364
-0.0106684
0.00423886
0.111192
-0.0114012
0.0042992
0.107708
-0.0119563
0.00432798
0.103875
-0.0120273
0.0042847
0.0994735
-0.0101345
0.00387627
0.0932557
0.00261858
0.0803634
0.0102146
0.00178174
0.0835108
0.0120428
0.00260193
0.0965016
0.0119377
0.0028332
0.102609
0.0113645
0.0028295
0.106924
0.0106198
0.00278325
0.110685
0.00977857
0.00272021
0.114108
0.00886666
0.00264853
0.117225
0.00789498
0.00257191
0.120036
0.00686927
0.00249345
0.12253
0.00579397
0.00241677
0.124696
0.0046741
0.00234601
0.12652
0.00351608
0.00228565
0.127994
0.00232809
0.00223988
0.129107
0.0011198
0.0022123
0.129853
-9.79052e-05
0.00220542
0.130227
-0.00131361
0.00222056
0.130227
-0.00251591
0.00225755
0.129853
-0.00369405
0.00231478
0.129107
-0.00483857
0.00238919
0.127994
-0.00594174
0.00247651
0.12652
-0.00699769
0.00257163
0.124695
-0.00800233
0.00266919
0.12253
-0.00895225
0.00276414
0.120035
-0.00984286
0.00285227
0.117223
-0.0106642
0.00293018
0.114104
-0.0113914
0.00299404
0.110679
-0.0119502
0.00303517
0.106915
-0.0120455
0.00302544
0.102599
-0.0102147
0.0027645
0.0964931
0.00188986
0.0835023
0.0102646
0.000993987
0.0856307
0.0120509
0.00141967
0.0986832
0.0119296
0.00151686
0.104716
0.0113531
0.00149024
0.108973
0.0106103
0.0014405
0.112689
0.0097735
0.00138133
0.116072
0.00886673
0.00131747
0.119154
0.00789952
0.00125165
0.121934
0.00687654
0.00118637
0.124402
0.00580146
0.00112442
0.126545
0.00467892
0.00106877
0.128351
0.00351546
0.00102239
0.129809
0.00231971
0.000988009
0.130911
0.00110221
0.000967907
0.13165
-0.000125147
0.000963681
0.13202
-0.00134975
0.000976156
0.13202
-0.00255908
0.00100527
0.13165
-0.00374151
0.00105005
0.130911
-0.004887
0.0011086
0.129809
-0.00598765
0.00117824
0.12835
-0.00703793
0.00125564
0.126544
-0.00803441
0.0013372
0.1244
-0.00897474
0.00141927
0.121932
-0.00985562
0.00149858
0.119151
-0.0106686
0.00157211
0.116067
-0.0113903
0.00163674
0.112682
-0.0119493
0.00168685
0.108964
-0.0120579
0.00170612
0.104706
-0.0102665
0.00158549
0.0986748
0.00110883
0.0856222
0.0102905
0.000178856
0.086699
0.0120578
0.000202983
0.0997812
0.0119303
0.000170002
0.105776
0.0113537
0.000123147
0.110005
0.0106131
7.21513e-05
0.113697
0.00977918
1.89028e-05
0.11706
0.0088751
-3.50641e-05
0.120125
0.00790972
-8.79501e-05
0.12289
0.00688713
-0.000137803
0.125344
0.00581067
-0.000182774
0.127475
0.00468487
-0.000221193
0.129272
0.00351639
-0.000251698
0.130723
0.00231421
-0.000273193
0.131819
0.00108941
-0.000284889
0.132554
-0.000145458
-0.000286201
0.132922
-0.00137706
-0.00027683
0.132922
-0.00259222
-0.000256702
0.132554
-0.00377874
-0.000226048
0.131819
-0.00492621
-0.000185438
0.130722
-0.0060266
-0.0001358
0.129271
-0.00707448
-7.84711e-05
0.127474
-0.00806674
-1.52012e-05
0.125342
-0.00900157
5.18756e-05
0.122887
-0.00987626
0.000120316
0.120121
-0.0106831
0.000187569
0.117055
-0.0113998
0.000251052
0.113691
-0.0119562
0.000308019
0.109996
-0.0120684
0.000353764
0.105766
-0.0102936
0.000369848
0.0997728
0.000299191
0.0866903
0.0102938
-0.00063983
0.0866993
0.0120649
-0.00101765
0.0997813
0.0119409
-0.00118028
0.105776
0.0113671
-0.00124666
0.110004
0.0106285
-0.00129804
0.113697
0.00979584
-0.00134435
0.11706
0.008892
-0.0013873
0.120124
0.00792579
-0.00142603
0.122889
0.00690128
-0.00145926
0.125343
0.00582188
-0.0014861
0.127474
0.00469224
-0.00150626
0.129271
0.00351916
-0.00152004
0.130722
0.00231187
-0.00152805
0.131818
0.00108165
-0.00153096
0.132553
-0.000158647
-0.00152928
0.132921
-0.00139545
-0.00152319
0.132921
-0.00261534
-0.0015125
0.132552
-0.00380587
-0.00149668
0.131817
-0.00495645
-0.00147492
0.13072
-0.00605891
-0.00144638
0.129269
-0.00710771
-0.00141035
0.127472
-0.0080997
-0.00136668
0.125341
-0.00903306
-0.00131596
0.122886
-0.00990517
-0.00125967
0.12012
-0.0107085
-0.00119992
0.117054
-0.0114207
-0.00113864
0.11369
-0.0119719
-0.00107565
0.109996
-0.0120786
-0.00100407
0.105766
-0.010298
-0.000851577
0.0997728
-0.000515015
0.0866905
0.0102743
-0.00143804
0.0856315
0.0120719
-0.00221148
0.0986835
0.0119606
-0.00250669
0.104716
0.0113923
-0.00259389
0.108973
0.0106557
-0.0026462
0.112688
0.00982248
-0.00268565
0.11607
0.00891633
-0.00271743
0.119152
0.00794661
-0.00274182
0.121932
0.00691792
-0.00275831
0.1244
0.00583409
-0.00276702
0.126542
0.00470014
-0.0027691
0.128348
0.00352308
-0.00276641
0.129806
0.00231219
-0.00276123
0.130908
0.00107871
-0.00275558
0.131646
-0.000164709
-0.00275099
0.132016
-0.00140468
-0.0027481
0.132016
-0.00262795
-0.00274663
0.131645
-0.00382223
-0.00274531
0.130907
-0.00497691
-0.00274212
0.129805
-0.00608366
-0.0027345
0.128346
-0.00713666
-0.00271983
0.12654
-0.00813233
-0.00269604
0.124397
-0.00906835
-0.00266215
0.121929
-0.00994156
-0.00261858
0.119148
-0.0107439
-0.00256679
0.116065
-0.0114524
-0.00250786
0.112681
-0.0119963
-0.00243844
0.108964
-0.0120884
-0.00233971
0.104706
-0.0102798
-0.00204772
0.0986748
-0.00130988
0.0856227
0.0102301
-0.00219183
0.083512
0.0120766
-0.00334787
0.0965019
0.0119876
-0.00378224
0.102609
0.0114276
-0.00389354
0.106923
0.0106927
-0.00394881
0.110684
0.00985699
-0.00398258
0.114106
0.00894584
-0.00400408
0.117223
0.00796983
-0.004015
0.120033
0.00693466
-0.0040158
0.122527
0.00584508
-0.00400766
0.124692
0.0047066
-0.00399305
0.126516
0.00352655
-0.00397539
0.127989
0.00231403
-0.00395826
0.129101
0.00107991
-0.00394495
0.129847
-0.000163738
-0.00393777
0.130221
-0.00140426
-0.00393776
0.130221
-0.00262906
-0.00394457
0.129846
-0.00382633
-0.0039564
0.1291
-0.00498569
-0.0039702
0.127987
-0.0060987
-0.00398196
0.126514
-0.00715905
-0.0039874
0.124689
-0.00816237
-0.00398263
0.122524
-0.0091053
-0.00396512
0.12003
-0.0099835
-0.00393403
0.117219
-0.0107876
-0.00388994
0.114101
-0.0114934
-0.00383261
0.110677
-0.0120275
-0.00375499
0.106914
-0.0120957
-0.00362584
0.102599
-0.0102367
-0.00318775
0.096493
-0.00206146
0.0835032
0.0101572
-0.00287773
0.0803735
0.0120749
-0.00439649
0.093265
0.0120185
-0.00498066
0.0994838
0.0114698
-0.00512148
0.103883
0.0107361
-0.00518319
0.107713
0.00989595
-0.0052136
0.111194
0.00897693
-0.0052267
0.114363
0.00799182
-0.00522616
0.117218
0.00694801
-0.00521351
0.119751
0.00585155
-0.00519111
0.121949
0.00470881
-0.00516268
0.1238
0.00352725
-0.00513276
0.125295
0.00231574
-0.00510607
0.126424
0.00108435
-0.0050867
0.127181
-0.000155951
-0.00507749
0.12756
-0.00139365
-0.00507984
0.12756
-0.00261731
-0.00509335
0.12718
-0.00381605
-0.00511589
0.126423
-0.00498001
-0.00514372
0.125294
-0.0061007
-0.00517188
0.123799
-0.00717128
-0.0051947
0.121947
-0.00818616
-0.00520688
0.119749
-0.0091404
-0.00520424
0.117215
-0.0100277
-0.0051846
0.114359
-0.0108366
-0.00514721
0.111189
-0.0115405
-0.00508989
0.107706
-0.0120622
-0.00500098
0.103874
-0.0120963
-0.00483618
0.0994735
-0.0101647
-0.00424112
0.0932558
-0.00274608
0.0803647
0.0100494
-0.00347317
0.0762649
0.0120606
-0.0053277
0.0890144
0.0120484
-0.00607709
0.0953802
0.0115143
-0.00625491
0.0998942
0.0107815
-0.00632801
0.103815
0.00993446
-0.00635843
0.107374
0.00900465
-0.00636605
0.110611
0.00800772
-0.0063571
0.113526
0.00695346
-0.00633452
0.11611
0.00584962
-0.00630189
0.118352
0.00470348
-0.00626389
0.120239
0.00352271
-0.00622589
0.121763
0.00231556
-0.0061931
0.122914
0.00109092
-0.00616997
0.123685
-0.000141666
-0.00615968
0.124071
-0.00137238
-0.00616371
0.124071
-0.00259139
-0.00618171
0.123684
-0.00378911
-0.00621151
0.122913
-0.00495657
-0.00624909
0.121762
-0.00608554
-0.00628905
0.120238
-0.0071685
-0.00632502
0.11835
-0.00819852
-0.00635059
0.116109
-0.0091684
-0.00636026
0.113524
-0.0100692
-0.00635019
0.110608
-0.0108863
-0.00631779
0.10737
-0.0115894
-0.00625825
0.103809
-0.0120956
-0.0061538
0.0998856
-0.0120841
-0.00594597
0.0953698
-0.0100574
-0.00517817
0.0890048
-0.00334072
0.0762561
0.00989817
-0.00395732
0.0712515
0.0120257
-0.00611274
0.0838047
0.0120712
-0.00704859
0.0903515
0.0115553
-0.007273
0.0950098
0.0108224
-0.0073635
0.0990441
0.0099661
-0.00739831
0.1027
0.00902283
-0.00740439
0.10602
0.0080119
-0.00739103
0.109008
0.00694622
-0.00736338
0.111655
0.00583545
-0.00732599
0.113949
0.00468788
-0.00728424
0.115881
0.003511
-0.00724354
0.117441
0.00231214
-0.00720906
0.118618
0.00109878
-0.00718519
0.119407
-0.000121435
-0.00717496
0.119803
-0.0013406
-0.00717994
0.119802
-0.00255074
-0.00719986
0.119407
-0.003744
-0.00723266
0.118618
-0.00491264
-0.00727455
0.11744
-0.00604904
-0.00732023
0.115881
-0.00714532
-0.00736344
0.113949
-0.00819306
-0.0073973
0.111655
-0.00918256
-0.00741538
0.109008
-0.0101013
-0.00741221
0.106019
-0.0109304
-0.00738258
0.102697
-0.0116347
-0.00731773
0.0990395
-0.0121219
-0.0071929
0.0950023
-0.0120512
-0.00693278
0.0903415
-0.00990642
-0.00597044
0.0837947
-0.00382421
0.0712426
0.00969245
-0.00431247
0.0654149
0.0119598
-0.00672388
0.0777026
0.0120784
-0.00787328
0.0844618
0.0115852
-0.00815637
0.089295
0.0108513
-0.0082715
0.0934651
0.0099836
-0.00831613
0.0972337
0.00902457
-0.00832489
0.100652
0.00799874
-0.00831244
0.103724
0.00692223
-0.00828592
0.106444
0.00580672
-0.00825082
0.108801
0.00466091
-0.00821228
0.110786
0.00349182
-0.00817526
0.112387
0.00230546
-0.00814415
0.113596
0.00110752
-0.00812278
0.114407
-9.61291e-05
-0.00811398
0.114813
-0.00129953
-0.0081192
0.114813
-0.0024966
-0.00813833
0.114407
-0.00368131
-0.00816955
0.113596
-0.00484749
-0.00820959
0.112387
-0.00598857
-0.00825386
0.110787
-0.00709697
-0.00829679
0.108803
-0.00816318
-0.00833214
0.106446
-0.00917494
-0.00835318
0.103727
-0.0101157
-0.00835306
0.100654
-0.010961
-0.00832364
0.0972345
-0.0116686
-0.00825021
0.0934633
-0.0121335
-0.00809916
0.0892896
-0.0119878
-0.00777558
0.0844528
-0.00970094
-0.00659102
0.0776925
-0.00417902
0.065406
0.00941862
-0.00452518
0.0588515
0.0118491
-0.00713333
0.0707851
0.0120602
-0.00852877
0.0777831
0.0115947
-0.00888489
0.0828231
0.0108592
-0.00903354
0.087151
0.00997802
-0.00909395
0.0910482
0.00900284
-0.00911119
0.0945763
0.00796362
-0.00910633
0.0977441
0.00687965
-0.00908871
0.100547
0.00576382
-0.00906412
0.102975
0.00462455
-0.00903665
0.10502
0.00346754
-0.00900989
0.10667
0.0022972
-0.00898708
0.107916
0.0011176
-0.00897133
0.108751
-6.69871e-05
-0.0089652
0.10917
-0.001252
-0.0089701
0.10917
-0.00243284
-0.00898601
0.108751
-0.00360497
-0.00901142
0.107917
-0.00476397
-0.00904352
0.106671
-0.00590488
-0.00907872
0.105022
-0.00702108
-0.00911295
0.102979
-0.00810318
-0.00914126
0.100551
-0.00913712
-0.00915792
0.0977497
-0.0101024
-0.00915536
0.0945824
-0.010968
-0.00912234
0.0910536
-0.0116819
-0.00903656
0.0871539
-0.0121206
-0.00885289
0.0828215
-0.0118811
-0.0084527
0.0777762
-0.00942765
-0.00701374
0.0707755
-0.00439236
0.0588431
0.00905904
-0.00459309
0.051679
0.0116724
-0.00730802
0.0631384
0.011998
-0.0089868
0.0703924
0.0115693
-0.00943515
0.0756716
0.0108341
-0.00962873
0.0801804
0.00993996
-0.009712
0.084221
0.00895147
-0.00974514
0.0878696
0.00790422
-0.00975616
0.0911421
0.00681999
-0.00975696
0.0940367
0.00571104
-0.00975189
0.0965452
0.00458436
-0.00974342
0.0986575
0.00344347
-0.0097328
0.100363
0.00229115
-0.00972234
0.101651
0.00113023
-0.00971451
0.102515
-3.56622e-05
-0.00971197
0.102948
-0.00120247
-0.00971613
0.102948
-0.00236608
-0.0097271
0.102515
-0.00352283
-0.0097434
0.101652
-0.00466958
-0.00976255
0.100365
-0.00580316
-0.00978178
0.0986607
-0.00691931
-0.00979835
0.0965501
-0.00801001
-0.0098099
0.0940435
-0.00906137
-0.00981263
0.0911511
-0.01005
-0.00979987
0.0878803
-0.010938
-0.00975757
0.0842321
-0.0116592
-0.00965493
0.0801896
-0.0120652
-0.00942998
0.0756757
-0.0117102
-0.00893691
0.0703891
-0.00906968
-0.00720679
0.0631296
-0.00446371
0.0516718
0.00857332
-0.0045196
0.0440418
0.0113845
-0.00720753
0.0548561
0.0118579
-0.00920898
0.0623633
0.0114857
-0.00977862
0.0679177
0.0107574
-0.0100284
0.0726323
0.00985572
-0.0101429
0.07683
0.00886218
-0.0102012
0.0806081
0.00781866
-0.0102394
0.083994
0.00674632
-0.0102698
0.0869897
0.00565506
-0.0102941
0.0895875
0.00454799
-0.0103113
0.0917761
0.00342647
-0.0103212
0.0935437
0.00229178
-0.0103253
0.0948795
0.00114695
-0.0103267
0.0957751
-4.01981e-06
-0.010328
0.0962245
-0.00115608
-0.0103313
0.0962247
-0.00230442
-0.0103364
0.0957757
-0.00344485
-0.0103419
0.0948808
-0.00457462
-0.0103449
0.0935459
-0.00569209
-0.0103428
0.0917797
-0.00679573
-0.0103338
0.0895932
-0.00788145
-0.0103177
0.0869981
-0.00893819
-0.0102943
0.0840056
-0.00994244
-0.0102601
0.0806231
-0.0108499
-0.0101999
0.0768472
-0.0115748
-0.0100747
0.072649
-0.0119318
-0.00980064
0.0679297
-0.0114309
-0.00918877
0.0623655
-0.00858803
-0.0071317
0.0548498
-0.00440106
0.044038
0.00792376
-0.00430427
0.0360796
0.0109093
-0.00675958
0.0460486
0.0115885
-0.00914299
0.0537594
0.0113015
-0.00985979
0.0596259
0.0105894
-0.0101719
0.0645711
0.00969102
-0.0103292
0.0689368
0.00871141
-0.0104304
0.0728538
0.00769441
-0.0105143
0.0763643
0.00665545
-0.0105894
0.0794737
0.00559743
-0.0106529
0.0821726
0.00451897
-0.0107009
0.0844477
0.00341952
-0.0107334
0.0862857
0.00230097
-0.0107529
0.087675
0.00116771
-0.0107634
0.0886064
2.61891e-05
-0.0107688
0.0890737
-0.00111654
-0.010771
0.0890738
-0.00225316
-0.0107703
0.0886068
-0.00337771
-0.0107644
0.0876759
-0.00448587
-0.0107501
0.0862874
-0.00557613
-0.0107236
0.0844507
-0.0066491
-0.0106827
0.0821776
-0.00770596
-0.0106276
0.0794818
-0.00874313
-0.0105614
0.0763766
-0.00974345
-0.0104857
0.0728709
-0.0106598
-0.0103898
0.0689585
-0.011383
-0.010231
0.0645948
-0.0116662
-0.00990562
0.059646
-0.0109644
-0.00915461
0.0537685
-0.0079456
-0.00671753
0.0460491
-0.00420699
0.036079
0.00701595
-0.00386361
0.0279157
0.010207
-0.00598056
0.0368601
0.0111361
-0.0086774
0.0446431
0.0109202
-0.00949971
0.0508219
0.0102205
-0.00988293
0.0559983
0.00935329
-0.0101227
0.0605368
0.00843261
-0.0103105
0.0646087
0.00748766
-0.010475
0.0682662
0.00651863
-0.0106171
0.0715112
0.00551842
-0.010731
0.0743299
0.00448262
-0.0108149
0.0767064
0.00341154
-0.0108719
0.0786258
0.00231052
-0.0109077
0.0800762
0.00118776
-0.0109281
0.0810483
5.33283e-05
-0.0109378
0.0815359
-0.00108199
-0.0109391
0.0815359
-0.00220759
-0.0109321
0.0810483
-0.00331367
-0.0109143
0.0800764
-0.00439234
-0.0108816
0.0786264
-0.0054391
-0.0108281
0.0767077
-0.00645386
-0.0107491
0.0743327
-0.00744196
-0.0106415
0.0715165
-0.00840999
-0.0105081
0.0682755
-0.00935785
-0.0103534
0.0646234
-0.0102542
-0.0101754
0.060558
-0.010979
-0.00994287
0.0560242
-0.0112071
-0.00955806
0.0508466
-0.0102671
-0.00871519
0.0446584
-0.0070492
-0.00597424
0.036869
-0.0038033
0.0279194
0.00687954
-0.00439082
0.0199143
0.00955306
-0.0040402
0.0273129
0.0103183
-0.00724964
0.0351342
0.0100098
-0.00814721
0.0413936
0.00936272
-0.00870556
0.0466993
0.00863657
-0.0091317
0.0514114
0.00788345
-0.00948113
0.0556764
0.00709639
-0.0097739
0.059522
0.00625701
-0.0100103
0.0629383
0.00535402
-0.0101912
0.0659063
0.00438623
-0.010322
0.0684074
0.00336141
-0.0104125
0.0704259
0.0022917
-0.010472
0.07195
0.00119149
-0.0105078
0.0729707
7.56929e-05
-0.0105248
0.0734825
-0.00104076
-0.0105254
0.0734823
-0.00214293
-0.0105095
0.0729703
-0.00321592
-0.0104748
0.0719493
-0.0042461
-0.0104162
0.0704252
-0.00522152
-0.0103268
0.0684067
-0.00613583
-0.0101976
0.065906
-0.00699057
-0.0100199
0.0629389
-0.0077987
-0.0097886
0.0595247
-0.00857871
-0.00950353
0.0556828
-0.0093381
-0.00916341
0.0514237
-0.0100209
-0.00874811
0.0467176
-0.0103599
-0.00819625
0.0414148
-0.00960182
-0.00729854
0.0351524
-0.00690528
-0.0040712
0.0273272
-0.00436298
0.019921
0.00316995
-0.000264794
0.00972573
0.00537892
-0.00127765
0.0179181
0.00638057
-0.00468841
0.0249252
0.00656796
-0.00527102
0.0307221
0.00654161
-0.00588247
0.0359562
0.00638003
-0.00640635
0.0407983
0.00610691
-0.00687152
0.0452509
0.005714
-0.00726238
0.0492864
0.00519121
-0.00757513
0.0528813
0.00454136
-0.00781718
0.0560103
0.00378104
-0.00799975
0.0586488
0.0029318
-0.00813288
0.0607783
0.00201809
-0.00822668
0.0623854
0.00106242
-0.00828633
0.0634615
8.58054e-05
-0.00831525
0.0640009
-0.000891104
-0.0083154
0.0640009
-0.00184772
-0.00828671
0.0634612
-0.002763
-0.0082272
0.0623848
-0.00361426
-0.00813319
0.060777
-0.00437783
-0.00799933
0.0586468
-0.00503259
-0.00781613
0.0560078
-0.00556344
-0.00757377
0.0528784
-0.00596875
-0.0072616
0.0492833
-0.00626035
-0.0068735
0.0452489
-0.00644866
-0.0064135
0.0408005
-0.00651204
-0.00589582
0.035964
-0.00636107
-0.0052969
0.0307354
-0.00538659
-0.0047263
0.0249413
-0.00320435
-0.00129858
0.0179348
-0.000277985
0.00973236
-5.36952e-05
0.00754829
0.00274299
0.00976372
0.00269043
0.0150015
0.00293829
0.0196061
0.00314583
0.0241802
0.00327816
0.0285057
0.00331292
0.0325144
0.00323266
0.0361927
0.00302621
0.0395159
0.00270431
0.0424349
0.00228657
0.0449128
0.00179459
0.0469231
0.00124788
0.0484461
0.000665464
0.0494684
6.55175e-05
0.0499816
-0.000534431
0.0499815
-0.00111677
0.049468
-0.00166315
0.0484452
-0.00215409
0.0469217
-0.00256958
0.044911
-0.00288823
0.0424327
-0.00309102
0.0395135
-0.00316844
0.0361906
-0.00313491
0.0325137
-0.00301054
0.0285065
-0.00281901
0.0241829
-0.00260147
0.0196105
-0.00269733
0.0150069
7.28542e-05
0.00976929
0.00755426
0.000877232
0.000299594
0.00636806
0.0014592
0.000642285
0.00853616
0.00151584
0.00156873
0.0133728
0.00161882
0.00197412
0.0175259
0.00165232
0.00254052
0.0216036
0.00164074
0.00307995
0.0254353
0.00158027
0.00358937
0.0289844
0.00147689
0.00405067
0.0322451
0.00133377
0.00446008
0.0351983
0.00115329
0.00481766
0.0377965
0.000937707
0.00512222
0.0400043
0.000689558
0.00537171
0.0417971
0.000413382
0.00556343
0.0431561
0.000116482
0.00569399
0.0440685
-0.000191501
0.00576024
0.0445264
-0.000499842
0.00576056
0.0445261
-0.000798102
0.00569522
0.0440677
-0.00107762
0.00556647
0.0431548
-0.00133223
0.00537755
0.0417953
-0.00155867
0.00513191
0.0400022
-0.00175534
0.00483204
0.0377945
-0.00191895
0.00447824
0.0351966
-0.00204342
0.00406913
0.0322438
-0.0021159
0.00359964
0.0289837
-0.00211486
0.00306734
0.025435
-0.00202954
0.00249071
0.0216038
-0.00183524
0.0018864
0.0175271
-0.00164435
0.00143839
0.0133754
-0.000931089
0.000515717
0.00853874
0.000251237
0.00637027
0.000801329
0.000817567
0.00840247
0.00215912