/*--------------------------------*- C++ -*----------------------------------*\
| =========                 |                                                 |
| \\      /  F ield         | OpenFOAM: The Open Source CFD Toolbox           |
|  \\    /   O peration     | Version:  2312                                  |
|   \\  /    A nd           | Website:  www.openfoam.com                      |
|    \\/     M anipulation  |                                                 |
\*---------------------------------------------------------------------------*/
FoamFile
{
    version     2.0;
    format      ascii;
    arch        "LSB;label=32;scalar=64";
    class       volScalarField;
    location    "950";
    object      T;
}
// * * * * * * * * * * * * * * * * * * * * * * * * * * * * * * * * * * * * * //

dimensions      [0 0 0 1 0 0 0];

internalField   nonuniform List<scalar> 
27000
(
425.971
355.647
347.11
343.033
342.391
342.521
342.767
343.029
343.284
343.502
343.678
343.812
343.911
343.977
344.01
344.009
343.974
343.907
343.805
343.668
343.49
343.266
343.005
342.732
342.469
342.314
342.915
346.929
355.392
425.466
335.917
354.414
348.301
346.698
346.457
346.706
346.998
347.239
347.43
347.579
347.69
347.772
347.829
347.865
347.882
347.88
347.86
347.819
347.757
347.67
347.55
347.39
347.183
346.919
346.596
346.31
346.51
348.086
354.219
335.935
342.416
345.649
348.119
347.869
347.737
347.804
347.943
348.077
348.187
348.273
348.338
348.385
348.417
348.436
348.444
348.441
348.427
348.401
348.361
348.304
348.227
348.125
347.995
347.836
347.672
347.583
347.709
347.985
345.595
342.428
342.353
346.185
347.737
348.017
348.026
348.055
348.128
348.216
348.3
348.37
348.425
348.466
348.495
348.512
348.518
348.515
348.5
348.475
348.436
348.383
348.314
348.228
348.127
348.021
347.935
347.904
347.909
347.664
346.167
342.369
342.775
346.733
347.91
348.115
348.149
348.166
348.204
348.26
348.322
348.38
348.429
348.467
348.494
348.511
348.516
348.512
348.497
348.471
348.433
348.383
348.321
348.25
348.176
348.11
348.07
348.061
348.046
347.871
346.732
342.794
343.202
347.115
348.069
348.219
348.24
348.244
348.261
348.293
348.335
348.38
348.42
348.454
348.479
348.495
348.5
348.495
348.481
348.455
348.42
348.375
348.324
348.27
348.22
348.185
348.172
348.18
348.178
348.053
347.126
343.224
343.602
347.384
348.178
348.299
348.31
348.306
348.309
348.325
348.351
348.383
348.415
348.443
348.465
348.478
348.483
348.478
348.464
348.442
348.411
348.374
348.334
348.296
348.266
348.252
348.256
348.273
348.279
348.178
347.403
343.626
343.943
347.577
348.253
348.354
348.361
348.353
348.349
348.354
348.369
348.391
348.414
348.436
348.454
348.465
348.469
348.465
348.453
348.433
348.408
348.379
348.35
348.326
348.311
348.309
348.322
348.343
348.35
348.265
347.602
343.967
344.23
347.718
348.304
348.391
348.397
348.388
348.38
348.38
348.387
348.401
348.417
348.434
348.447
348.456
348.459
348.456
348.446
348.43
348.41
348.389
348.369
348.355
348.35
348.356
348.372
348.392
348.398
348.323
347.746
344.253
344.468
347.82
348.337
348.414
348.419
348.411
348.403
348.399
348.402
348.41
348.422
348.434
348.444
348.451
348.453
348.45
348.442
348.43
348.415
348.4
348.388
348.381
348.381
348.391
348.407
348.425
348.429
348.362
347.849
344.489
344.655
347.893
348.358
348.427
348.432
348.425
348.417
348.413
348.414
348.419
348.426
348.435
348.442
348.447
348.449
348.447
348.441
348.432
348.421
348.411
348.404
348.401
348.405
348.415
348.43
348.445
348.448
348.386
347.923
344.674
344.796
347.943
348.37
348.433
348.438
348.432
348.426
348.422
348.421
348.424
348.43
348.436
348.441
348.445
348.446
348.445
348.44
348.434
348.427
348.42
348.416
348.416
348.421
348.43
348.443
348.456
348.457
348.399
347.973
344.815
344.896
347.976
348.376
348.434
348.439
348.435
348.429
348.426
348.425
348.427
348.431
348.436
348.44
348.443
348.444
348.443
348.44
348.435
348.43
348.426
348.424
348.425
348.43
348.438
348.45
348.46
348.459
348.405
348.005
344.914
344.96
347.995
348.377
348.432
348.438
348.434
348.429
348.426
348.426
348.428
348.431
348.434
348.438
348.44
348.441
348.44
348.438
348.435
348.431
348.428
348.427
348.429
348.433
348.441
348.451
348.46
348.458
348.406
348.023
344.977
344.99
348.002
348.375
348.428
348.434
348.431
348.426
348.424
348.424
348.425
348.428
348.432
348.435
348.437
348.438
348.437
348.436
348.433
348.43
348.427
348.426
348.428
348.432
348.439
348.448
348.457
348.455
348.404
348.029
345.007
344.988
347.999
348.371
348.424
348.43
348.426
348.422
348.419
348.419
348.421
348.424
348.427
348.431
348.433
348.434
348.434
348.432
348.429
348.425
348.423
348.422
348.423
348.427
348.434
348.443
348.451
348.45
348.399
348.026
345.005
344.955
347.986
348.365
348.419
348.425
348.42
348.415
348.412
348.412
348.414
348.418
348.422
348.426
348.429
348.43
348.429
348.426
348.423
348.419
348.415
348.413
348.414
348.418
348.425
348.435
348.444
348.443
348.392
348.011
344.971
344.888
347.961
348.357
348.413
348.418
348.412
348.406
348.403
348.403
348.405
348.41
348.415
348.42
348.424
348.425
348.424
348.421
348.416
348.41
348.405
348.401
348.401
348.404
348.412
348.423
348.433
348.434
348.381
347.985
344.903
344.785
347.923
348.345
348.404
348.408
348.401
348.394
348.39
348.39
348.394
348.4
348.408
348.414
348.419
348.421
348.419
348.415
348.408
348.399
348.391
348.385
348.383
348.386
348.394
348.406
348.419
348.421
348.366
347.945
344.8
344.641
347.867
348.326
348.391
348.394
348.386
348.377
348.373
348.375
348.381
348.39
348.4
348.409
348.415
348.417
348.415
348.409
348.4
348.388
348.376
348.366
348.361
348.362
348.37
348.383
348.398
348.401
348.343
347.887
344.655
344.451
347.789
348.298
348.37
348.373
348.363
348.355
348.352
348.356
348.366
348.38
348.393
348.405
348.413
348.417
348.414
348.406
348.393
348.377
348.36
348.345
348.334
348.332
348.337
348.351
348.368
348.373
348.309
347.806
344.464
344.211
347.682
348.258
348.34
348.343
348.332
348.325
348.326
348.335
348.351
348.37
348.389
348.405
348.415
348.419
348.416
348.406
348.39
348.369
348.345
348.323
348.305
348.295
348.297
348.309
348.327
348.333
348.261
347.694
344.223
343.92
347.537
348.2
348.295
348.299
348.29
348.287
348.295
348.313
348.337
348.364
348.389
348.409
348.422
348.427
348.423
348.411
348.392
348.365
348.334
348.302
348.273
348.253
348.246
348.254
348.27
348.276
348.193
347.543
343.931
343.577
347.339
348.118
348.232
348.24
348.236
348.242
348.261
348.292
348.327
348.363
348.394
348.418
348.434
348.44
348.436
348.423
348.4
348.368
348.329
348.286
348.244
348.209
348.188
348.185
348.195
348.197
348.099
347.336
343.585
343.174
347.065
348.001
348.144
348.163
348.17
348.19
348.228
348.275
348.324
348.368
348.405
348.433
348.45
348.457
348.453
348.439
348.414
348.378
348.333
348.279
348.221
348.166
348.124
348.102
348.1
348.091
347.965
347.052
343.178
342.743
346.675
347.832
348.031
348.067
348.09
348.134
348.196
348.264
348.326
348.379
348.42
348.449
348.467
348.475
348.471
348.457
348.431
348.394
348.343
348.281
348.207
348.129
348.057
348.007
347.984
347.956
347.775
346.649
342.741
342.315
346.117
347.647
347.927
347.943
347.981
348.062
348.157
348.246
348.321
348.379
348.423
348.453
348.471
348.479
348.476
348.462
348.437
348.4
348.347
348.279
348.192
348.09
347.98
347.886
347.84
347.825
347.563
346.072
342.306
342.367
345.561
348.018
347.779
347.661
347.74
347.887
348.028
348.143
348.231
348.298
348.346
348.379
348.4
348.409
348.406
348.393
348.367
348.328
348.273
348.197
348.097
347.969
347.811
347.643
347.545
347.649
347.892
345.485
342.348
335.85
354.285
348.208
346.631
346.407
346.666
346.963
347.208
347.4
347.549
347.662
347.744
347.801
347.838
347.855
347.853
347.833
347.794
347.733
347.647
347.529
347.372
347.169
346.91
346.592
346.306
346.497
348.042
354.106
335.829
425.693
355.557
347.06
343.004
342.371
342.504
342.752
343.014
343.269
343.488
343.663
343.798
343.897
343.964
343.997
343.996
343.962
343.894
343.793
343.657
343.48
343.259
342.999
342.731
342.472
342.323
342.929
346.936
355.367
425.268
448.805
364.096
348.146
339.444
336.698
336.002
335.919
336.035
336.225
336.429
336.619
336.779
336.901
336.981
337.022
337.023
336.984
336.906
336.786
336.628
336.442
336.245
336.066
335.972
336.092
336.848
339.682
348.489
364.542
449.578
332.077
361.662
352.787
347.417
344.422
343.405
343.279
343.443
343.67
343.89
344.079
344.23
344.342
344.415
344.453
344.455
344.422
344.353
344.246
344.101
343.921
343.717
343.514
343.389
343.575
344.668
347.726
353.108
361.931
331.996
336.931
343.727
349.675
349.178
347.857
347.032
346.699
346.615
346.626
346.665
346.709
346.75
346.782
346.805
346.819
346.822
346.815
346.799
346.776
346.748
346.72
346.703
346.725
346.851
347.231
348.094
349.416
349.853
343.789
336.916
335.929
341.826
346.445
348.121
348.213
347.944
347.717
347.586
347.518
347.481
347.463
347.454
347.451
347.452
347.454
347.459
347.464
347.473
347.487
347.51
347.547
347.607
347.703
347.863
348.112
348.383
348.26
346.519
341.836
335.906
336.298
342.204
345.965
347.502
347.977
348.027
347.954
347.869
347.8
347.748
347.711
347.685
347.669
347.661
347.66
347.664
347.675
347.694
347.722
347.762
347.816
347.886
347.973
348.072
348.148
348.084
347.576
345.99
342.185
336.266
336.649
342.962
346.204
347.387
347.824
347.961
347.973
347.937
347.89
347.845
347.807
347.778
347.758
347.746
347.743
347.748
347.761
347.783
347.815
347.856
347.907
347.964
348.02
348.059
348.042
347.886
347.42
346.2
342.925
336.612
337.037
343.587
346.475
347.42
347.767
347.903
347.943
347.937
347.91
347.877
347.845
347.818
347.798
347.786
347.782
347.787
347.8
347.822
347.852
347.889
347.93
347.97
347.999
348.003
347.952
347.799
347.426
346.454
343.544
336.995
337.456
344.079
346.682
347.47
347.751
347.867
347.911
347.918
347.905
347.882
347.857
347.834
347.816
347.805
347.801
347.805
347.818
347.837
347.863
347.893
347.923
347.949
347.962
347.949
347.893
347.76
347.46
346.65
344.033
337.414
337.841
344.468
346.84
347.516
347.749
347.846
347.886
347.897
347.89
347.875
347.856
347.837
347.822
347.813
347.81
347.813
347.824
347.84
347.861
347.884
347.906
347.921
347.925
347.907
347.855
347.743
347.494
346.803
344.423
337.803
338.173
344.775
346.964
347.557
347.754
347.834
347.869
347.879
347.876
347.864
347.85
347.835
347.823
347.816
347.813
347.816
347.824
347.837
347.853
347.87
347.886
347.895
347.894
347.876
347.832
347.739
347.529
346.925
344.733
338.139
338.451
345.015
347.062
347.593
347.763
347.83
347.858
347.866
347.863
347.854
347.843
347.832
347.822
347.816
347.813
347.816
347.822
347.832
347.844
347.857
347.867
347.873
347.871
347.856
347.819
347.742
347.562
347.023
344.975
338.421
338.675
345.197
347.138
347.625
347.775
347.831
347.852
347.857
347.854
347.846
347.837
347.828
347.82
347.815
347.813
347.815
347.819
347.827
347.836
347.845
347.853
347.857
347.855
347.844
347.815
347.75
347.592
347.099
345.159
338.647
338.844
345.33
347.195
347.651
347.787
347.834
347.85
347.853
347.849
347.841
347.833
347.825
347.819
347.814
347.813
347.814
347.817
347.823
347.83
347.837
347.843
347.847
347.846
347.838
347.815
347.76
347.617
347.157
345.294
338.817
338.957
345.418
347.233
347.67
347.796
347.839
347.851
347.851
347.846
347.839
347.831
347.824
347.819
347.815
347.813
347.814
347.817
347.821
347.827
347.833
347.838
347.842
347.842
347.836
347.817
347.769
347.636
347.196
345.383
338.931
339.015
345.463
347.254
347.681
347.803
347.843
347.854
347.853
347.847
347.84
347.832
347.825
347.82
347.816
347.815
347.815
347.818
347.822
347.827
347.832
347.837
347.841
347.842
347.838
347.821
347.776
347.648
347.217
345.428
338.989
339.016
345.466
347.258
347.685
347.807
347.846
347.857
347.856
347.851
347.843
347.835
347.828
347.823
347.819
347.817
347.818
347.82
347.824
347.829
347.835
347.84
347.845
347.846
347.842
347.825
347.78
347.653
347.222
345.432
338.991
338.963
345.427
347.244
347.68
347.807
347.849
347.862
347.862
347.857
347.849
347.841
347.833
347.827
347.823
347.821
347.822
347.824
347.829
347.835
347.842
347.848
347.852
347.853
347.848
347.83
347.782
347.65
347.209
345.394
338.938
338.853
345.345
347.212
347.669
347.805
347.852
347.868
347.87
347.866
347.858
347.849
347.84
347.833
347.828
347.826
347.827
347.83
347.836
347.844
347.852
347.859
347.864
347.865
347.858
347.836
347.782
347.64
347.179
345.313
338.829
338.688
345.217
347.162
347.65
347.8
347.856
347.877
347.882
347.878
347.869
347.859
347.849
347.84
347.834
347.831
347.832
347.837
347.845
347.855
347.865
347.875
347.881
347.882
347.872
347.845
347.782
347.625
347.131
345.186
338.664
338.467
345.039
347.092
347.625
347.796
347.863
347.89
347.898
347.894
347.884
347.871
347.858
347.847
347.839
347.836
347.838
347.844
347.854
347.867
347.881
347.894
347.903
347.904
347.892
347.859
347.784
347.605
347.064
345.01
338.443
338.191
344.804
347
347.596
347.794
347.875
347.909
347.918
347.913
347.9
347.883
347.867
347.853
347.844
347.84
347.842
347.85
347.863
347.88
347.899
347.917
347.93
347.933
347.919
347.879
347.79
347.582
346.977
344.777
338.167
337.862
344.501
346.883
347.563
347.798
347.895
347.935
347.943
347.934
347.916
347.894
347.873
347.856
347.845
347.84
347.843
347.853
347.869
347.89
347.915
347.94
347.96
347.968
347.956
347.911
347.805
347.559
346.867
344.477
337.839
337.48
344.116
346.732
347.526
347.809
347.925
347.967
347.971
347.954
347.928
347.899
347.873
347.853
347.84
347.835
347.838
347.849
347.868
347.894
347.926
347.959
347.989
348.008
348.003
347.955
347.831
347.536
346.726
344.097
337.458
337.065
343.63
346.535
347.487
347.837
347.97
348.007
347.996
347.964
347.927
347.891
347.86
347.838
347.823
347.818
347.821
347.833
347.854
347.884
347.922
347.965
348.009
348.045
348.058
348.019
347.877
347.514
346.543
343.617
337.046
336.682
343.011
346.276
347.469
347.905
348.037
348.042
348
347.947
347.896
347.854
347.822
347.799
347.785
347.78
347.784
347.795
347.816
347.847
347.888
347.94
348
348.062
348.11
348.107
347.97
347.521
346.305
343.011
336.671
336.339
342.272
346.057
347.6
348.069
348.11
348.027
347.933
347.857
347.799
347.758
347.729
347.71
347.7
347.697
347.7
347.71
347.727
347.754
347.792
347.845
347.916
348.006
348.113
348.204
348.165
347.685
346.114
342.293
336.339
335.988
341.922
346.561
348.234
348.311
348.027
347.787
347.647
347.571
347.529
347.507
347.495
347.491
347.49
347.491
347.494
347.499
347.506
347.518
347.539
347.573
347.63
347.724
347.886
348.146
348.443
348.362
346.66
341.977
336.003
337.015
343.858
349.814
349.293
347.948
347.103
346.758
346.665
346.671
346.707
346.749
346.788
346.819
346.842
346.854
346.856
346.848
346.831
346.805
346.774
346.743
346.721
346.735
346.854
347.233
348.11
349.473
349.979
343.963
337.052
332.19
361.85
352.914
347.508
344.486
343.451
343.315
343.475
343.7
343.92
344.109
344.261
344.373
344.446
344.483
344.484
344.45
344.38
344.271
344.123
343.939
343.728
343.517
343.381
343.555
344.64
347.711
353.145
362.094
332.219
449.217
364.23
348.225
339.492
336.731
336.027
335.938
336.05
336.241
336.446
336.637
336.798
336.919
336.999
337.039
337.039
337
336.922
336.801
336.642
336.453
336.251
336.067
335.969
336.079
336.82
339.636
348.439
364.525
449.842
445.193
362.069
346.549
337.608
334.505
333.564
333.343
333.354
333.447
333.548
333.637
333.711
333.769
333.808
333.828
333.827
333.806
333.765
333.706
333.631
333.539
333.434
333.334
333.307
333.499
334.392
337.422
346.279
361.722
444.625
332.139
360.256
352.341
346.597
342.755
341.063
340.612
340.703
340.978
341.277
341.544
341.759
341.919
342.024
342.076
342.075
342.021
341.913
341.751
341.533
341.262
340.952
340.661
340.542
340.95
342.59
346.389
352.125
360.074
332.233
336.091
343.338
349.559
349.103
347.172
345.733
345.145
345.098
345.27
345.488
345.684
345.839
345.95
346.021
346.055
346.053
346.016
345.941
345.825
345.665
345.459
345.227
345.034
345.052
345.606
347.021
348.955
349.453
343.313
336.106
333.993
340.241
345.442
347.837
348.042
347.597
347.27
347.176
347.222
347.321
347.421
347.502
347.56
347.596
347.613
347.611
347.591
347.55
347.487
347.398
347.288
347.175
347.11
347.185
347.495
347.94
347.759
345.407
340.242
334.01
333.988
339.835
344.21
346.806
347.805
347.983
347.942
347.912
347.931
347.982
348.038
348.086
348.121
348.143
348.152
348.15
348.137
348.11
348.07
348.015
347.949
347.888
347.856
347.878
347.917
347.749
346.773
344.206
339.852
334.014
334.178
340.379
344.423
346.702
347.682
348.031
348.135
348.169
348.198
348.234
348.272
348.305
348.331
348.346
348.353
348.351
348.34
348.32
348.29
348.251
348.206
348.163
348.128
348.092
347.993
347.657
346.694
344.437
340.409
334.21
334.366
341.034
345.011
346.949
347.744
348.073
348.209
348.271
348.309
348.342
348.372
348.398
348.417
348.43
348.436
348.434
348.425
348.408
348.384
348.354
348.32
348.283
348.244
348.184
348.055
347.738
346.958
345.035
341.071
334.402
334.554
341.624
345.535
347.216
347.864
348.136
348.261
348.325
348.365
348.395
348.419
348.44
348.456
348.466
348.47
348.469
348.461
348.448
348.429
348.406
348.378
348.348
348.309
348.249
348.131
347.87
347.234
345.564
341.662
334.588
334.744
342.124
345.923
347.422
347.973
348.199
348.305
348.363
348.398
348.424
348.444
348.46
348.472
348.48
348.484
348.482
348.476
348.466
348.452
348.434
348.413
348.388
348.355
348.303
348.203
347.986
347.445
345.953
342.16
334.774
334.925
342.539
346.206
347.568
348.053
348.249
348.341
348.39
348.42
348.441
348.456
348.469
348.478
348.484
348.487
348.486
348.481
348.474
348.463
348.45
348.435
348.416
348.389
348.344
348.259
348.07
347.591
346.234
342.571
334.95
335.085
342.871
346.409
347.667
348.107
348.284
348.366
348.41
348.435
348.451
348.463
348.472
348.479
348.483
348.485
348.484
348.481
348.476
348.469
348.46
348.449
348.435
348.412
348.373
348.296
348.125
347.69
346.435
342.899
335.108
335.22
343.127
346.552
347.732
348.142
348.306
348.383
348.422
348.444
348.457
348.466
348.473
348.477
348.48
348.482
348.481
348.479
348.476
348.471
348.466
348.458
348.447
348.428
348.392
348.32
348.16
347.754
346.576
343.151
335.24
335.323
343.31
346.65
347.775
348.163
348.32
348.393
348.43
348.449
348.46
348.467
348.472
348.475
348.477
348.478
348.478
348.477
348.475
348.472
348.468
348.463
348.454
348.437
348.403
348.334
348.181
347.796
346.672
343.333
335.342
335.393
343.428
346.71
347.801
348.175
348.327
348.398
348.433
348.451
348.461
348.467
348.47
348.473
348.474
348.475
348.475
348.474
348.473
348.471
348.469
348.465
348.457
348.441
348.408
348.341
348.192
347.82
346.731
343.449
335.411
335.427
343.485
346.739
347.812
348.18
348.329
348.399
348.434
348.452
348.461
348.466
348.469
348.471
348.472
348.472
348.472
348.472
348.471
348.47
348.469
348.465
348.458
348.442
348.41
348.343
348.197
347.831
346.759
343.506
335.445
335.426
343.483
346.737
347.811
348.179
348.328
348.398
348.432
348.45
348.46
348.465
348.468
348.469
348.47
348.471
348.471
348.471
348.47
348.469
348.467
348.464
348.456
348.441
348.408
348.341
348.195
347.829
346.757
343.504
335.443
335.389
343.423
346.706
347.796
348.171
348.323
348.393
348.429
348.447
348.457
348.463
348.466
348.469
348.47
348.471
348.471
348.47
348.469
348.468
348.465
348.461
348.453
348.436
348.404
348.336
348.187
347.814
346.725
343.444
335.406
335.317
343.303
346.643
347.768
348.157
348.313
348.386
348.423
348.442
348.453
348.46
348.465
348.468
348.47
348.472
348.472
348.471
348.469
348.466
348.462
348.456
348.447
348.429
348.395
348.325
348.172
347.786
346.662
343.323
335.334
335.211
343.117
346.542
347.723
348.133
348.297
348.373
348.412
348.434
348.447
348.457
348.463
348.468
348.471
348.473
348.473
348.471
348.468
348.463
348.457
348.449
348.437
348.417
348.381
348.308
348.147
347.74
346.561
343.137
335.229
335.076
342.86
346.397
347.655
348.095
348.272
348.353
348.397
348.422
348.438
348.451
348.46
348.467
348.472
348.474
348.474
348.471
348.466
348.458
348.449
348.438
348.422
348.399
348.359
348.28
348.108
347.671
346.415
342.881
335.093
334.914
342.527
346.192
347.554
348.039
348.233
348.325
348.374
348.404
348.425
348.441
348.454
348.464
348.47
348.473
348.473
348.469
348.461
348.451
348.438
348.422
348.401
348.373
348.326
348.239
348.048
347.568
346.21
342.549
334.932
334.733
342.111
345.908
347.405
347.955
348.18
348.285
348.342
348.378
348.404
348.425
348.442
348.455
348.464
348.468
348.468
348.462
348.452
348.438
348.42
348.398
348.372
348.337
348.282
348.18
347.96
347.416
345.924
342.133
334.752
334.543
341.61
345.516
347.195
347.841
348.112
348.236
348.301
348.341
348.372
348.398
348.42
348.437
348.448
348.453
348.452
348.445
348.432
348.414
348.39
348.362
348.33
348.29
348.226
348.105
347.839
347.199
345.528
341.63
334.563
334.355
341.018
344.988
346.923
347.715
348.042
348.179
348.242
348.282
348.316
348.348
348.376
348.397
348.41
348.417
348.416
348.407
348.391
348.368
348.338
348.303
348.266
348.224
348.16
348.026
347.703
346.918
344.992
341.033
334.373
334.163
340.358
344.393
346.666
347.645
347.994
348.098
348.135
348.167
348.206
348.246
348.282
348.308
348.325
348.333
348.332
348.322
348.302
348.273
348.234
348.19
348.146
348.109
348.07
347.964
347.619
346.648
344.386
340.364
334.176
333.968
339.804
344.17
346.759
347.757
347.937
347.9
347.874
347.898
347.952
348.01
348.061
348.097
348.12
348.13
348.129
348.117
348.091
348.052
347.998
347.933
347.872
347.84
347.859
347.892
347.713
346.723
344.148
339.796
333.972
333.965
340.198
345.387
347.777
347.983
347.543
347.223
347.135
347.187
347.29
347.393
347.476
347.536
347.573
347.59
347.589
347.57
347.53
347.468
347.381
347.272
347.16
347.097
347.172
347.48
347.914
347.714
345.344
340.174
333.956
336.052
343.277
349.482
349.029
347.107
345.678
345.1
345.06
345.237
345.459
345.657
345.814
345.926
345.998
346.032
346.031
345.995
345.921
345.806
345.647
345.443
345.213
345.024
345.046
345.603
347.014
348.93
349.398
343.234
336.037
332.094
360.139
352.25
346.522
342.696
341.019
340.578
340.676
340.954
341.256
341.523
341.739
341.899
342.005
342.057
342.056
342.003
341.896
341.735
341.518
341.248
340.942
340.654
340.539
340.954
342.598
346.394
352.109
359.999
332.118
444.904
361.957
346.471
337.554
334.468
333.537
333.324
333.338
333.432
333.533
333.623
333.697
333.754
333.794
333.814
333.814
333.793
333.753
333.694
333.62
333.53
333.426
333.329
333.305
333.501
334.402
337.443
346.306
361.74
444.497
443.301
361.73
346.618
337.414
333.71
332.207
331.596
331.365
331.307
331.313
331.341
331.374
331.402
331.424
331.435
331.435
331.424
331.403
331.375
331.343
331.318
331.317
331.387
331.641
332.293
333.862
337.659
346.96
362.141
443.997
331.205
359.256
352.134
346.532
342.269
339.88
338.783
338.407
338.38
338.5
338.662
338.818
338.945
339.034
339.078
339.078
339.033
338.944
338.817
338.663
338.506
338.399
338.449
338.865
340.016
342.466
346.776
352.384
359.482
331.141
335.418
342.759
349.174
348.967
346.878
344.862
343.586
342.988
342.823
342.88
343.024
343.18
343.314
343.408
343.455
343.454
343.405
343.309
343.176
343.022
342.888
342.851
343.047
343.686
345.005
347.051
349.137
349.298
342.796
335.409
332.755
339.216
344.655
347.451
347.835
347.151
346.387
345.905
345.701
345.67
345.722
345.797
345.865
345.915
345.94
345.94
345.913
345.863
345.796
345.726
345.686
345.736
345.968
346.482
347.268
347.953
347.541
344.698
339.223
332.751
332.275
338.118
342.702
345.821
347.323
347.636
347.46
347.219
347.056
346.977
346.955
346.96
346.975
346.988
346.996
346.996
346.988
346.976
346.965
346.966
346.999
347.093
347.276
347.532
347.713
347.389
345.859
342.709
338.105
332.255
332.213
338.157
342.291
345.194
346.872
347.542
347.688
347.643
347.562
347.498
347.46
347.441
347.433
347.43
347.43
347.43
347.432
347.437
347.449
347.474
347.521
347.594
347.685
347.735
347.584
346.899
345.198
342.272
338.127
332.183
332.263
338.529
342.551
345.249
346.764
347.441
347.693
347.753
347.739
347.706
347.676
347.654
347.64
347.632
347.629
347.629
347.634
347.645
347.663
347.689
347.725
347.763
347.78
347.719
347.457
346.764
345.228
342.513
338.488
332.229
332.361
338.961
343.006
345.548
346.838
347.42
347.676
347.774
347.797
347.79
347.773
347.756
347.742
347.733
347.73
347.73
347.736
347.747
347.763
347.783
347.803
347.813
347.788
347.686
347.419
346.82
345.513
342.96
338.917
332.328
332.483
339.379
343.471
345.86
346.958
347.448
347.676
347.778
347.816
347.824
347.818
347.807
347.796
347.789
347.785
347.786
347.791
347.801
347.813
347.825
347.832
347.824
347.782
347.674
347.436
346.934
345.821
343.425
339.338
332.454
332.609
339.758
343.883
346.119
347.075
347.492
347.688
347.782
347.825
347.839
347.84
347.834
347.826
347.82
347.817
347.818
347.822
347.829
347.837
347.844
347.843
347.826
347.78
347.679
347.475
347.048
346.083
343.842
339.724
332.585
332.728
340.085
344.223
346.322
347.174
347.536
347.706
347.79
347.831
347.848
347.851
347.848
347.843
347.839
347.837
347.837
347.84
347.845
347.85
347.852
347.847
347.828
347.783
347.693
347.517
347.148
346.29
344.189
340.057
332.708
332.829
340.352
344.487
346.476
347.254
347.576
347.725
347.8
347.837
347.854
347.858
347.857
347.854
347.85
347.848
347.848
347.851
347.854
347.857
347.857
347.85
347.831
347.79
347.711
347.556
347.228
346.448
344.459
340.329
332.812
332.91
340.554
344.679
346.588
347.313
347.608
347.743
347.81
347.844
347.859
347.864
347.863
347.861
347.858
347.856
347.856
347.857
347.86
347.862
347.861
347.854
347.836
347.799
347.728
347.589
347.29
346.563
344.656
340.535
332.894
332.966
340.691
344.803
346.659
347.354
347.632
347.757
347.819
347.849
347.863
347.868
347.868
347.865
347.863
347.861
347.861
347.862
347.864
347.865
347.864
347.857
347.841
347.807
347.742
347.613
347.332
346.637
344.782
340.674
332.951
332.995
340.762
344.865
346.695
347.375
347.645
347.766
347.825
347.854
347.867
347.871
347.871
347.869
347.867
347.865
347.865
347.866
347.867
347.868
347.867
347.861
347.845
347.813
347.751
347.627
347.355
346.675
344.845
340.745
332.981
332.997
340.763
344.867
346.698
347.377
347.647
347.768
347.827
347.857
347.87
347.874
347.874
347.872
347.869
347.868
347.867
347.868
347.87
347.871
347.87
347.864
347.848
347.816
347.754
347.63
347.358
346.677
344.848
340.747
332.983
332.97
340.697
344.809
346.666
347.361
347.639
347.765
347.827
347.858
347.872
347.876
347.876
347.873
347.871
347.869
347.869
347.87
347.872
347.874
347.873
347.866
347.85
347.817
347.752
347.623
347.342
346.646
344.79
340.68
332.956
332.917
340.563
344.689
346.598
347.325
347.621
347.756
347.824
347.857
347.872
347.877
347.876
347.874
347.871
347.869
347.869
347.87
347.873
347.875
347.875
347.869
347.851
347.815
347.744
347.605
347.306
346.577
344.668
340.545
332.903
332.84
340.364
344.5
346.49
347.269
347.593
347.743
347.819
347.856
347.872
347.877
347.875
347.871
347.868
347.866
347.866
347.868
347.872
347.875
347.876
347.871
347.852
347.812
347.734
347.579
347.251
346.469
344.477
340.344
332.825
332.741
340.1
344.237
346.339
347.194
347.558
347.729
347.813
347.854
347.871
347.874
347.87
347.865
347.86
347.857
347.858
347.861
347.866
347.872
347.875
347.872
347.854
347.811
347.722
347.546
347.177
346.317
344.212
340.078
332.725
332.624
339.774
343.899
346.138
347.098
347.517
347.715
347.81
347.852
347.866
347.866
347.859
347.851
347.845
347.841
347.842
347.846
347.853
347.862
347.87
347.871
347.856
347.812
347.713
347.51
347.084
346.116
343.872
339.75
332.607
332.499
339.396
343.488
345.881
346.985
347.478
347.707
347.809
347.848
347.854
347.847
347.835
347.823
347.815
347.811
347.812
347.817
347.827
347.839
347.853
347.862
347.856
347.817
347.712
347.477
346.976
345.862
343.462
339.371
332.48
332.377
338.979
343.026
345.573
346.868
347.455
347.713
347.81
347.832
347.822
347.804
347.785
347.77
347.761
347.756
347.757
347.763
347.774
347.791
347.812
347.833
347.845
347.825
347.726
347.464
346.868
345.561
343.004
338.956
332.359
332.282
338.551
342.576
345.28
346.802
347.481
347.734
347.793
347.776
347.741
347.708
347.684
347.668
347.659
347.656
347.656
347.661
347.672
347.69
347.717
347.754
347.795
347.816
347.76
347.504
346.816
345.283
342.566
338.534
332.266
332.235
338.185
342.324
345.234
346.918
347.59
347.734
347.686
347.6
347.533
347.492
347.47
347.461
347.457
347.456
347.456
347.458
347.462
347.474
347.5
347.547
347.623
347.717
347.773
347.63
346.953
345.259
342.333
338.183
332.226
332.302
338.153
342.745
345.873
347.379
347.691
347.511
347.264
347.094
347.01
346.984
346.987
347.001
347.014
347.021
347.02
347.012
347
346.988
346.988
347.021
347.116
347.301
347.562
347.752
347.44
345.923
342.778
338.17
332.305
332.788
339.26
344.71
347.515
347.903
347.214
346.441
345.948
345.736
345.7
345.747
345.821
345.889
345.938
345.963
345.962
345.935
345.884
345.816
345.745
345.704
345.754
345.986
346.502
347.294
347.992
347.597
344.77
339.298
332.812
335.454
342.816
349.251
349.048
346.954
344.927
343.638
343.029
342.854
342.906
343.046
343.202
343.335
343.429
343.476
343.475
343.425
343.329
343.195
343.04
342.905
342.867
343.061
343.699
345.019
347.071
349.173
349.36
342.877
335.48
331.237
359.37
352.234
346.622
342.345
339.94
338.829
338.442
338.409
338.526
338.686
338.841
338.968
339.056
339.101
339.1
339.054
338.965
338.837
338.682
338.525
338.416
338.464
338.877
340.024
342.471
346.786
352.413
359.557
331.234
443.607
361.865
346.726
337.495
333.769
332.251
331.631
331.394
331.332
331.337
331.364
331.396
331.425
331.446
331.457
331.457
331.445
331.424
331.395
331.363
331.337
331.335
331.404
331.656
332.302
333.864
337.653
346.953
362.148
444.137
437.425
358.635
344.483
336.041
332.826
331.556
331.036
330.829
330.764
330.752
330.759
330.773
330.786
330.797
330.804
330.806
330.802
330.795
330.785
330.774
330.769
330.778
330.834
331.02
331.5
332.697
335.798
344.109
358.144
436.612
331.317
357.099
350.201
344.92
341.031
338.895
337.913
337.56
337.513
337.592
337.71
337.826
337.92
337.987
338.022
338.025
337.995
337.933
337.843
337.731
337.612
337.525
337.552
337.866
338.789
340.851
344.673
349.933
356.842
331.382
335.278
342.199
347.997
347.667
345.682
343.787
342.567
341.976
341.794
341.824
341.939
342.071
342.185
342.267
342.311
342.315
342.278
342.202
342.093
341.963
341.843
341.797
341.951
342.498
343.666
345.519
347.492
347.858
342.15
335.271
332.407
338.824
344.015