/*--------------------------------*- C++ -*----------------------------------*\
| =========                 |                                                 |
| \\      /  F ield         | OpenFOAM: The Open Source CFD Toolbox           |
|  \\    /   O peration     | Version:  2312                                  |
|   \\  /    A nd           | Website:  www.openfoam.com                      |
|    \\/     M anipulation  |                                                 |
\*---------------------------------------------------------------------------*/
FoamFile
{
    version     2.0;
    format      ascii;
    arch        "LSB;label=32;scalar=64";
    class       volVectorField;
    location    "950";
    object      U;
}
// * * * * * * * * * * * * * * * * * * * * * * * * * * * * * * * * * * * * * //

dimensions      [0 1 -1 0 0 0 0];

internalField   nonuniform List<vector> 
27000
(
(-6.90066e-05 0.000113284 0.107486)
(-0.000212148 0.000223594 0.0764326)
(-0.000114355 0.000233073 0.0819076)
(-8.22205e-05 0.000207926 0.0835785)
(-4.77971e-05 0.000200155 0.0854977)
(-2.6609e-05 0.000198545 0.0869924)
(-1.0504e-05 0.000199428 0.0881071)
(1.33765e-06 0.000201083 0.0889991)
(9.32033e-06 0.000203145 0.0897449)
(1.37408e-05 0.000205237 0.0903405)
(1.5342e-05 0.000207185 0.0907997)
(1.4807e-05 0.000208882 0.0911442)
(1.2766e-05 0.000210296 0.0913929)
(9.71969e-06 0.000211367 0.0915565)
(6.10573e-06 0.000211984 0.0916383)
(2.3231e-06 0.000212132 0.0916396)
(-1.25634e-06 0.00021182 0.0915605)
(-4.23162e-06 0.000211053 0.0913998)
(-6.14876e-06 0.000209951 0.091154)
(-6.47731e-06 0.000208569 0.090812)
(-4.60065e-06 0.000206951 0.0903544)
(2.48841e-07 0.000205234 0.0897594)
(8.69931e-06 0.000203646 0.0890125)
(2.11266e-05 0.000202565 0.0881167)
(3.7571e-05 0.000202476 0.0869945)
(5.92679e-05 0.000205019 0.085487)
(9.23968e-05 0.000213334 0.083547)
(0.000123013 0.00023738 0.0818454)
(0.000220364 0.000230403 0.0763367)
(7.30572e-05 0.000116052 0.1073)
(0.000294774 -0.000132107 0.0626361)
(0.000115194 -4.25947e-05 0.083612)
(8.50695e-05 0.000160465 0.091648)
(4.97683e-05 0.000214354 0.0944697)
(4.42788e-05 0.000237936 0.0958935)
(4.68546e-05 0.000252749 0.0968914)
(4.92612e-05 0.000264456 0.0976213)
(5.0468e-05 0.000274387 0.0981692)
(4.98869e-05 0.000282538 0.0985907)
(4.72455e-05 0.000289079 0.0989126)
(4.25552e-05 0.000294207 0.0991526)
(3.6147e-05 0.000298116 0.0993271)
(2.84367e-05 0.00030098 0.0994491)
(1.98286e-05 0.000302902 0.0995273)
(1.07155e-05 0.000303976 0.0995659)
(1.43605e-06 0.000304233 0.0995669)
(-7.66647e-06 0.000303666 0.0995299)
(-1.62344e-05 0.000302257 0.099453)
(-2.3896e-05 0.000299908 0.0993315)
(-3.02455e-05 0.000296525 0.0991561)
(-3.48754e-05 0.000291937 0.0989126)
(-3.75365e-05 0.000285998 0.0985837)
(-3.81757e-05 0.000278547 0.0981501)
(-3.72256e-05 0.000269528 0.0975827)
(-3.53254e-05 0.000258725 0.0968245)
(-3.35856e-05 0.000245089 0.09579)
(-4.03589e-05 0.000221841 0.094328)
(-7.85327e-05 0.000167939 0.0914804)
(-0.000113245 -4.03126e-05 0.0834572)
(-0.000296873 -0.000132767 0.0625736)
(9.6144e-05 0.000141372 0.0805858)
(0.000120437 0.000163883 0.0899022)
(0.000154989 0.000219584 0.0967206)
(0.000141554 0.000251053 0.0984219)
(0.000122953 0.000269999 0.0990322)
(0.00010879 0.000282549 0.0994185)
(9.72823e-05 0.000292125 0.0997323)
(8.72794e-05 0.000299938 0.0999892)
(7.79575e-05 0.000306353 0.100195)
(6.85271e-05 0.000311464 0.100357)
(5.85707e-05 0.000315376 0.10048)
(4.79088e-05 0.000318283 0.10057)
(3.65805e-05 0.000320356 0.100633)
(2.47583e-05 0.000321751 0.100673)
(1.26072e-05 0.000322569 0.100692)
(3.54103e-07 0.000322855 0.10069)
(-1.17957e-05 0.000322621 0.100669)
(-2.3648e-05 0.000321812 0.100626)
(-3.5015e-05 0.00032033 0.100557)
(-4.57598e-05 0.000318043 0.100459)
(-5.58944e-05 0.000314798 0.100323)
(-6.55978e-05 0.000310442 0.100143)
(-7.53888e-05 0.000304894 0.0999125)
(-8.60439e-05 0.000298006 0.0996233)
(-9.84273e-05 0.000289442 0.0992707)
(-0.000113793 0.000277574 0.0988448)
(-0.000133912 0.000258874 0.0982061)
(-0.000149838 0.000225672 0.0965124)
(-0.000118197 0.000167233 0.0897661)
(-9.92748e-05 0.000138356 0.0805286)
(0.000137147 6.63478e-05 0.0839841)
(0.000148373 0.000151299 0.0939504)
(0.000177329 0.000225052 0.0981265)
(0.000170141 0.000249364 0.0992151)
(0.000155459 0.000263396 0.0996022)
(0.00013861 0.000272886 0.0998358)
(0.000122311 0.000280111 0.100037)
(0.000107227 0.000286101 0.100219)
(9.32444e-05 0.000291126 0.100378)
(7.99498e-05 0.000295208 0.100511)
(6.68603e-05 0.000298389 0.100616)
(5.37114e-05 0.000300732 0.100695)
(4.03543e-05 0.000302406 0.100751)
(2.67575e-05 0.000303529 0.100786)
(1.30083e-05 0.000304219 0.100801)
(-8.22556e-07 0.000304532 0.100798)
(-1.4617e-05 0.000304473 0.100775)
(-2.82849e-05 0.000303982 0.100732)
(-4.17811e-05 0.000302982 0.100665)
(-5.51566e-05 0.000301334 0.100571)
(-6.85687e-05 0.000298933 0.100448)
(-8.2353e-05 0.000295695 0.100291)
(-9.69608e-05 0.000291581 0.100103)
(-0.000112867 0.000286514 0.0998875)
(-0.000130207 0.000280038 0.0996536)
(-0.000148228 0.000270972 0.0993946)
(-0.000164358 0.000256537 0.0990005)
(-0.000173423 0.000230543 0.0979407)
(-0.000147354 0.000153001 0.0938479)
(-0.000138685 6.41821e-05 0.0839594)
(0.000135357 9.34692e-05 0.0865465)
(0.000169751 0.000159515 0.0959863)
(0.000197476 0.000217748 0.098905)
(0.000189048 0.00023884 0.0995463)
(0.000174532 0.000250214 0.0997811)
(0.000157221 0.000257521 0.0999324)
(0.000139154 0.000262842 0.100073)
(0.000121604 0.00026711 0.100213)
(0.000104935 0.00027065 0.100346)
(8.90097e-05 0.00027356 0.100465)
(7.35956e-05 0.000275822 0.100564)
(5.84246e-05 0.000277524 0.100643)
(4.33207e-05 0.000278724 0.100699)
(2.81921e-05 0.000279567 0.100734)
(1.29934e-05 0.000280121 0.100749)
(-2.24145e-06 0.000280458 0.100744)
(-1.74957e-05 0.000280572 0.100718)
(-3.27585e-05 0.000280432 0.10067)
(-4.80711e-05 0.000279944 0.100599)
(-6.35472e-05 0.000279025 0.100503)
(-7.93871e-05 0.000277587 0.100382)
(-9.58506e-05 0.000275565 0.100238)
(-0.000113204 0.00027291 0.100077)
(-0.000131555 0.000269432 0.0999103)
(-0.000150522 0.00026468 0.0997488)
(-0.000168848 0.000257495 0.0995885)
(-0.000184448 0.000245514 0.0993643)
(-0.000194241 0.000222623 0.0987628)
(-0.000168685 0.000161126 0.095922)
(-0.000136214 9.16512e-05 0.0865447)
(0.000142324 9.44365e-05 0.0883919)
(0.000187119 0.000162652 0.097193)
(0.000213329 0.000208289 0.0993722)
(0.000203809 0.000223986 0.0997768)
(0.000188713 0.000232771 0.0999026)
(0.000170835 0.000238319 0.0999873)
(0.000151901 0.000242221 0.100078)
(0.000133021 0.000245181 0.10018)
(0.000114663 0.00024752 0.100288)
(9.69188e-05 0.000249346 0.100391)
(7.96719e-05 0.000250754 0.100483)
(6.27768e-05 0.000251779 0.100558)
(4.60716e-05 0.000252528 0.100614)
(2.94351e-05 0.000253069 0.100649)
(1.28115e-05 0.000253498 0.100664)
(-3.84197e-06 0.000253856 0.100657)
(-2.05455e-05 0.000254152 0.100628)
(-3.73337e-05 0.000254352 0.100578)
(-5.42845e-05 0.000254387 0.100505)
(-7.15156e-05 0.000254178 0.10041)
(-8.91924e-05 0.000253636 0.100297)
(-0.000107462 0.000252677 0.100171)
(-0.000126414 0.000251158 0.100042)
(-0.000145956 0.000248859 0.0999216)
(-0.000165587 0.00024533 0.099822)
(-0.000184159 0.000239716 0.0997417)
(-0.000199991 0.000230236 0.0996377)
(-0.000210409 0.000212907 0.0992766)
(-0.000185743 0.000164458 0.0971637)
(-0.000142303 9.34819e-05 0.0884061)
(0.000149261 9.40333e-05 0.089771)
(0.000202498 0.000157459 0.097961)
(0.000226528 0.00019419 0.099672)
(0.000216018 0.000206241 0.0999477)
(0.000200162 0.000212824 0.100008)
(0.000181761 0.000216947 0.100044)
(0.000162246 0.00021973 0.100093)
(0.000142534 0.00022169 0.100161)
(0.000123068 0.000223073 0.100242)
(0.000103982 0.000224033 0.100327)
(8.52858e-05 0.000224675 0.100407)
(6.68892e-05 0.000225104 0.100476)
(4.86893e-05 0.000225403 0.100528)
(3.05942e-05 0.000225669 0.100562)
(1.25266e-05 0.000225971 0.100575)
(-5.55934e-06 0.000226352 0.100567)
(-2.3703e-05 0.000226825 0.100538)
(-4.19565e-05 0.000227353 0.100488)
(-6.03884e-05 0.000227875 0.100418)
(-7.90936e-05 0.000228299 0.10033)
(-9.81644e-05 0.000228518 0.100231)
(-0.000117667 0.000228395 0.100128)
(-0.000137586 0.000227742 0.100032)
(-0.000157749 0.000226315 0.0999553)
(-0.000177698 0.000223763 0.0999068)
(-0.000196519 0.000219463 0.0998845)
(-0.000212777 0.000212181 0.0998516)
(-0.000223844 0.00019872 0.0996173)
(-0.000200862 0.000159646 0.0979585)
(-0.000148651 9.39824e-05 0.0897956)
(0.000156158 9.05639e-05 0.0908067)
(0.000215875 0.0001479 0.0984726)
(0.000237674 0.000177126 0.0998703)
(0.000226227 0.000186366 0.100072)
(0.000209658 0.00019127 0.100096)
(0.000190765 0.000194251 0.1001)
(0.000170807 0.000196136 0.100119)
(0.000150521 0.000197303 0.100159)
(0.000130264 0.000197937 0.100215)
(0.000110188 0.000198197 0.100281)
(9.03214e-05 0.000198222 0.100346)
(7.0646e-05 0.000198135 0.100405)
(5.11019e-05 0.000198052 0.100452)
(3.16258e-05 0.000198066 0.100482)
(1.21707e-05 0.000198254 0.100494)
(-7.30138e-06 0.000198659 0.100486)
(-2.68224e-05 0.000199287 0.100458)
(-4.64262e-05 0.000200102 0.100411)
(-6.61565e-05 0.000201038 0.100348)
(-8.6063e-05 0.000201985 0.100272)
(-0.000106189 0.000202805 0.10019)
(-0.000126539 0.000203325 0.100112)
(-0.000147053 0.000203333 0.100047)
(-0.000167571 0.000202596 0.100006)
(-0.000187724 0.000200841 0.0999952)
(-0.000206771 0.000197639 0.100009)
(-0.000223522 0.000192091 0.100013)
(-0.000235255 0.000181664 0.0998478)
(-0.000214197 0.000150538 0.0984892)
(-0.00015523 9.13468e-05 0.0908371)
(0.000163299 8.43807e-05 0.0916074)
(0.000227621 0.000134863 0.0988254)
(0.000247234 0.000157974 0.100003)
(0.000234853 0.000164949 0.100159)
(0.000217564 0.000168522 0.100163)
(0.000198204 0.000170552 0.10015)
(0.000177863 0.000171706 0.100149)
(0.000157138 0.000172232 0.100167)
(0.000136295 0.000172291 0.100203)
(0.000115455 0.000172021 0.100251)
(9.46633e-05 0.000171574 0.100302)
(7.39173e-05 0.000171093 0.10035)
(5.31986e-05 0.000170707 0.100389)
(3.24859e-05 0.000170523 0.100415)
(1.17619e-05 0.00017062 0.100424)
(-8.98156e-06 0.000171039 0.100417)
(-2.97487e-05 0.000171785 0.100391)
(-5.05395e-05 0.000172822 0.10035)
(-7.13632e-05 0.000174064 0.100296)
(-9.22329e-05 0.000175394 0.100234)
(-0.000113143 0.000176649 0.100171)
(-0.000134082 0.000177635 0.100116)
(-0.00015499 0.000178145 0.100077)
(-0.000175738 0.000177964 0.100063)
(-0.000196061 0.000176895 0.100076)
(-0.00021539 0.000174641 0.100109)
(-0.000232667 0.000170517 0.10013)
(-0.000245176 0.000162575 0.100004)
(-0.000226062 0.000137921 0.0988546)
(-0.000162238 8.58056e-05 0.0916393)
(0.000170049 7.57719e-05 0.0922307)
(0.000237809 0.000119056 0.0990745)
(0.000255435 0.000137118 0.100091)
(0.000242131 0.000142259 0.100217)
(0.000224147 0.000144731 0.100211)
(0.00020431 0.000145986 0.100189)
(0.000183624 0.000146533 0.100176)
(0.00016253 0.000146561 0.10018)
(0.000141226 0.000146185 0.1002)
(0.000119791 0.00014554 0.100233)
(9.82549e-05 0.000144768 0.100271)
(7.66302e-05 0.000144019 0.100308)
(5.49246e-05 0.000143427 0.100339)
(3.31477e-05 0.000143107 0.10036)
(1.13205e-05 0.000143136 0.100367)
(-1.05295e-05 0.000143559 0.10036)
(-3.23653e-05 0.000144377 0.100339)
(-5.4158e-05 0.000145546 0.100304)
(-7.5877e-05 0.000146979 0.100261)
(-9.74944e-05 0.000148545 0.100213)
(-0.000119 0.000150076 0.100167)
(-0.000140363 0.000151377 0.100131)
(-0.000161551 0.000152253 0.100112)
(-0.000182489 0.000152527 0.100116)
(-0.000202994 0.000152045 0.100142)
(-0.000222644 0.000150611 0.100184)
(-0.000240492 0.000147696 0.100212)
(-0.000253785 0.000141781 0.100109)
(-0.00023647 0.000122464 0.0991117)
(-0.000169004 7.76675e-05 0.0922628)
(0.000176039 6.52529e-05 0.0927041)
(0.000246406 0.000101081 0.0992495)
(0.00026232 0.000114854 0.100147)
(0.000248175 0.000118475 0.100253)
(0.000229552 0.000120027 0.100242)
(0.00020928 0.000120647 0.100216)
(0.000188264 0.000120706 0.100197)
(0.00016685 0.000120344 0.100192)
(0.000145165 0.000119662 0.100202)
(0.00012325 0.00011877 0.100222)
(0.000101119 0.000117804 0.100249)
(7.87851e-05 0.000116904 0.100277)
(5.627e-05 0.000116201 0.100301)
(3.36148e-05 0.000115804 0.100316)
(1.08714e-05 0.000115792 0.100322)
(-1.18934e-05 0.000116204 0.100316)
(-3.46133e-05 0.00011704 0.100298)
(-5.72159e-05 0.000118255 0.100271)
(-7.96425e-05 0.000119763 0.100237)
(-0.00010185 0.000121432 0.100202)
(-0.000123803 0.000123099 0.100171)
(-0.000145492 0.000124591 0.10015)
(-0.000166907 0.000125727 0.100145)
(-0.000188019 0.000126368 0.100159)
(-0.00020872 0.000126391 0.100192)
(-0.000228694 0.000125654 0.100235)
(-0.000247075 0.000123773 0.100265)
(-0.000261101 0.000119556 0.100178)
(-0.000245342 0.000104738 0.099292)
(-0.000175086 6.74784e-05 0.0927367)
(0.000181072 5.32377e-05 0.093053)
(0.000253388 8.14129e-05 0.0993692)
(0.000267917 9.14493e-05 0.100182)
(0.000253057 9.37828e-05 0.100272)
(0.000233887 9.45663e-05 0.100259)
(0.000213231 9.46534e-05 0.100232)
(0.000191924 9.4316e-05 0.10021)
(0.000170231 9.36612e-05 0.1002)
(0.000148228 9.27714e-05 0.100203)
(0.000125926 9.17419e-05 0.100215)
(0.00010332 9.06902e-05 0.100233)
(8.0422e-05 8.97376e-05 0.100253)
(5.72662e-05 8.90034e-05 0.100271)
(3.39119e-05 8.85838e-05 0.100283)
(1.0441e-05 8.85497e-05 0.100286)
(-1.30526e-05 8.89361e-05 0.100281)
(-3.64659e-05 8.97409e-05 0.100267)
(-5.97037e-05 9.09246e-05 0.100247)
(-8.26821e-05 9.24026e-05 0.100222)
(-0.000105338 9.40614e-05 0.100197)
(-0.000127642 9.57573e-05 0.100177)
(-0.000149588 9.73342e-05 0.100167)
(-0.000171193 9.86508e-05 0.100171)
(-0.000192469 9.95828e-05 0.100191)
(-0.000213361 0.000100042 0.100225)
(-0.000233627 9.99127e-05 0.100268)
(-0.000252472 9.89185e-05 0.100297)
(-0.000267123 9.61388e-05 0.100221)
(-0.000252617 8.52371e-05 0.0994155)
(-0.000180249 5.56914e-05 0.0930862)
(0.000185022 4.00875e-05 0.0932975)
(0.000258739 6.04641e-05 0.0994469)
(0.00027223 6.71403e-05 0.1002)
(0.00025681 6.83574e-05 0.10028)
(0.000237213 6.8486e-05 0.100266)
(0.000216249 6.81272e-05 0.100239)
(0.0001947 6.74715e-05 0.100216)
(0.000172776 6.66021e-05 0.100204)
(0.000150516 6.55866e-05 0.100202)
(0.000127907 6.45053e-05 0.100209)
(0.000104933 6.34515e-05 0.100221)
(8.16016e-05 6.25271e-05 0.100235)
(5.79559e-05 6.18244e-05 0.100248)
(3.40708e-05 6.14248e-05 0.100256)
(1.00478e-05 6.13834e-05 0.100259)
(-1.39941e-05 6.17298e-05 0.100255)
(-3.79312e-05 6.24624e-05 0.100244)
(-6.16449e-05 6.35454e-05 0.100229)
(-8.50353e-05 6.49148e-05 0.100211)
(-0.000108032 6.6474e-05 0.100194)
(-0.000130603 6.8109e-05 0.100182)
(-0.000152752 6.96973e-05 0.100179)
(-0.000174517 7.11223e-05 0.100188)
(-0.000195935 7.22873e-05 0.100211)
(-0.000216989 7.31155e-05 0.100245)
(-0.000237496 7.35197e-05 0.100286)
(-0.0002567 7.32933e-05 0.100313)
(-0.000271833 7.17731e-05 0.100245)
(-0.00025826 6.43855e-05 0.099496)
(-0.000184346 4.27101e-05 0.0933312)
(0.000187806 2.61349e-05 0.0934518)
(0.000262448 3.86065e-05 0.099492)
(0.000275249 4.21722e-05 0.100207)
(0.00025945 4.23925e-05 0.100281)
(0.000239558 4.19485e-05 0.100266)
(0.000218376 4.12087e-05 0.100239)
(0.000196649 4.02965e-05 0.100216)
(0.000174551 3.9274e-05 0.100203)
(0.000152098 3.81967e-05 0.100198)
(0.000129261 3.71282e-05 0.100201)
(0.000106018 3.61382e-05 0.10021)
(8.23746e-05 3.52984e-05 0.10022)
(5.838e-05 3.46759e-05 0.10023)
(3.41193e-05 3.43259e-05 0.100236)
(9.70749e-06 3.4288e-05 0.100238)
(-1.47204e-05 3.45828e-05 0.100235)
(-3.90242e-05 3.52087e-05 0.100227)
(-6.30717e-05 3.61437e-05 0.100215)
(-8.67527e-05 3.73404e-05 0.100201)
(-0.000109992 3.87346e-05 0.10019)
(-0.000132755 4.02446e-05 0.100183)
(-0.000155057 4.17836e-05 0.100184)
(-0.000176943 4.32642e-05 0.100196)
(-0.00019847 4.46117e-05 0.10022)
(-0.000219646 4.57587e-05 0.100254)
(-0.000240317 4.66346e-05 0.100293)
(-0.000259763 4.70963e-05 0.100319)
(-0.000275218 4.67079e-05 0.100255)
(-0.000262248 4.25799e-05 0.099543)
(-0.000187284 2.8891e-05 0.0934862)
(0.000189365 1.16851e-05 0.0935254)
(0.000264498 1.61882e-05 0.0995104)
(0.000276965 1.679e-05 0.100206)
(0.000260972 1.60881e-05 0.100276)
(0.000240926 1.51248e-05 0.10026)
(0.000219625 1.40509e-05 0.100233)
(0.000197792 1.29257e-05 0.100211)
(0.000175585 1.17952e-05 0.100196)
(0.000153009 1.07028e-05 0.100191)
(0.000130027 9.6933e-06 0.100193)
(0.000106613 8.81109e-06 0.100199)
(8.27755e-05 8.09668e-06 0.100208)
(5.85655e-05 7.58572e-06 0.100216)
(3.40746e-05 7.30593e-06 0.100222)
(9.42671e-06 7.27775e-06 0.100223)
(-1.5235e-05 7.51211e-06 0.10022)
(-3.97609e-05 8.01004e-06 0.100213)
(-6.40114e-05 8.76119e-06 0.100203)
(-8.78705e-05 9.74494e-06 0.100192)
(-0.000111259 1.09276e-05 0.100183)
(-0.000134145 1.22677e-05 0.100179)
(-0.000156543 1.37136e-05 0.100182)
(-0.000178507 1.52105e-05 0.100195)
(-0.0002001 1.6701e-05 0.100219)
(-0.000221342 1.81291e-05 0.100253)
(-0.000242097 1.94351e-05 0.100291)
(-0.00026166 2.05313e-05 0.100318)
(-0.000277266 2.12005e-05 0.100256)
(-0.000264569 2.01849e-05 0.0995624)
(-0.000189005 1.4561e-05 0.0935602)
(0.000189665 -2.96672e-06 0.0935227)
(0.000264878 -6.45357e-06 0.099505)
(0.000277365 -8.76167e-06 0.100199)
(0.000261366 -1.03543e-05 0.100268)
(0.000241309 -1.1808e-05 0.100252)
(0.000219989 -1.31912e-05 0.100224)
(0.000198128 -1.45008e-05 0.100201)
(0.000175883 -1.57112e-05 0.100186)
(0.000153256 -1.67897e-05 0.100181)
(0.000130214 -1.77117e-05 0.100182)
(0.00010673 -1.84598e-05 0.100189)
(8.28147e-05 -1.90262e-05 0.100197)
(5.85211e-05 -1.94083e-05 0.100206)
(3.39428e-05 -1.96068e-05 0.100212)
(9.20635e-06 -1.96215e-05 0.100213)
(-1.55417e-05 -1.9452e-05 0.100211)
(-4.01505e-05 -1.90945e-05 0.100203)
(-6.44771e-05 -1.85444e-05 0.100193)
(-8.84044e-05 -1.7798e-05 0.100182)
(-0.000111853 -1.6852e-05 0.100173)
(-0.000134788 -1.57106e-05 0.100169)
(-0.000157225 -1.43849e-05 0.100172)
(-0.000179217 -1.28999e-05 0.100186)
(-0.000200827 -1.12925e-05 0.10021)
(-0.000222078 -9.60912e-06 0.100244)
(-0.000242831 -7.89784e-06 0.100283)
(-0.000262386 -6.19226e-06 0.10031)
(-0.000277972 -4.49704e-06 0.100249)
(-0.000265212 -2.45059e-06 0.099557)
(-0.000189478 2.28228e-08 0.0935577)
(0.000188696 -1.75229e-05 0.0934439)
(0.000263576 -2.89826e-05 0.0994759)
(0.000276435 -3.42372e-05 0.100186)
(0.000260618 -3.67289e-05 0.100257)
(0.00024069 -3.86744e-05 0.100239)
(0.000219451 -4.03586e-05 0.10021)
(0.000197639 -4.18438e-05 0.100186)
(0.000175425 -4.31216e-05 0.100172)
(0.000152823 -4.41753e-05 0.100167)
(0.000129806 -4.49997e-05 0.10017)
(0.000106355 -4.56057e-05 0.100179)
(8.24808e-05 -4.60187e-05 0.10019)
(5.82373e-05 -4.62684e-05 0.1002)
(3.37171e-05 -4.63835e-05 0.100207)
(9.04347e-06 -4.63845e-05 0.100209)
(-1.56419e-05 -4.62795e-05 0.100206)
(-4.01902e-05 -4.60631e-05 0.100198)
(-6.44643e-05 -4.57175e-05 0.100186)
(-8.83484e-05 -4.52119e-05 0.100173)
(-0.000111763 -4.45108e-05 0.100161)
(-0.000134673 -4.35771e-05 0.100154)
(-0.00015709 -4.23852e-05 0.100156)
(-0.000179061 -4.09259e-05 0.100168)
(-0.000200641 -3.9216e-05 0.100192)
(-0.00022184 -3.72892e-05 0.100227)
(-0.000242509 -3.51804e-05 0.100267)
(-0.00026193 -3.28648e-05 0.100296)
(-0.000277325 -3.01311e-05 0.100234)
(-0.000264171 -2.49843e-05 0.0995269)
(-0.000188696 -1.44234e-05 0.0934787)
(0.000186473 -3.16804e-05 0.0932845)
(0.00026058 -5.10581e-05 0.0994205)
(0.000274163 -5.9386e-05 0.100165)
(0.000258709 -6.28328e-05 0.100241)
(0.000239047 -6.52959e-05 0.100222)
(0.000217985 -6.72959e-05 0.100192)
(0.000196293 -6.89642e-05 0.100167)
(0.000174176 -7.03168e-05 0.100153)
(0.00015167 -7.13532e-05 0.100151)
(0.000128765 -7.2089e-05 0.100157)
(0.00010545 -7.25661e-05 0.10017)
(8.174e-05 -7.28373e-05 0.100185)
(5.76885e-05 -7.29669e-05 0.100198)
(3.33801e-05 -7.30066e-05 0.100208)
(8.92977e-06 -7.29959e-05 0.100211)
(-1.55309e-05 -7.29514e-05 0.100208)
(-3.98676e-05 -7.28668e-05 0.100197)
(-6.39503e-05 -7.27106e-05 0.100182)
(-8.76717e-05 -7.24315e-05 0.100164)
(-0.000110956 -7.19611e-05 0.100147)
(-0.000133765 -7.1227e-05 0.100135)
(-0.000156104 -7.01638e-05 0.100132)
(-0.000178006 -6.87311e-05 0.100141)
(-0.000199513 -6.69187e-05 0.100165)
(-0.000220609 -6.47481e-05 0.100201)
(-0.000241113 -6.22303e-05 0.100243)
(-0.000260278 -5.92784e-05 0.100274)
(-0.000275318 -5.54489e-05 0.10021)
(-0.000261436 -4.70685e-05 0.0994692)
(-0.000186676 -2.84725e-05 0.0933187)
(0.000183039 -4.5123e-05 0.0930355)
(0.000255888 -7.23195e-05 0.0993331)
(0.000270534 -8.3959e-05 0.100134)
(0.000255617 -8.84575e-05 0.100217)
(0.000236349 -9.14994e-05 0.100199)
(0.00021555 -9.38505e-05 0.100167)
(0.000194039 -9.57307e-05 0.100142)
(0.000172074 -9.71844e-05 0.100131)
(0.000149733 -9.82316e-05 0.100132)
(0.000127024 -9.89123e-05 0.100145)
(0.000103953 -9.92914e-05 0.100164)
(8.05407e-05 -9.94579e-05 0.100185)
(5.68325e-05 -9.9494e-05 0.100204)
(3.29061e-05 -9.94787e-05 0.100217)
(8.85658e-06 -9.94627e-05 0.100222)
(-1.5204e-05 -9.94713e-05 0.100217)
(-3.91576e-05 -9.94964e-05 0.100204)
(-6.28955e-05 -9.94986e-05 0.100183)
(-8.63224e-05 -9.94086e-05 0.100158)
(-0.000109369 -9.91326e-05 0.100133)
(-0.000131997 -9.85665e-05 0.100113)
(-0.000154201 -9.76091e-05 0.100103)
(-0.000175996 -9.61855e-05 0.100107)
(-0.000197396 -9.42594e-05 0.100128)
(-0.000218348 -9.18264e-05 0.100164)
(-0.000238617 -8.8872e-05 0.100209)
(-0.000257412 -8.52268e-05 0.100242)
(-0.000271936 -8.01958e-05 0.100172)
(-0.000257001 -6.83411e-05 0.0993782)
(-0.000183458 -4.1804e-05 0.0930687)
(0.000178467 -5.75032e-05 0.0926824)
(0.000249491 -9.23826e-05 0.0992046)
(0.000265539 -0.000107697 0.100087)
(0.000251309 -0.000113407 0.100183)
(0.000232545 -0.000117117 0.100165)
(0.000212079 -0.000119883 0.100134)
(0.000190796 -0.000122023 0.100111)
(0.000169034 -0.000123627 0.100104)
(0.000146917 -0.000124736 0.100113)
(0.000124496 -0.000125416 0.100134)
(0.000101786 -0.00012576 0.100163)
(7.88155e-05 -0.000125875 0.100192)
(5.56236e-05 -0.000125869 0.100218)
(3.2263e-05 -0.000125829 0.100235)
(8.81071e-06 -0.000125821 0.100242)
(-1.46506e-05 -0.000125871 0.100236)
(-3.80332e-05 -0.000125974 0.100219)
(-6.12513e-05 -0.000126085 0.100192)
(-8.42313e-05 -0.000126123 0.100158)
(-0.000106918 -0.000125979 0.100123)
(-0.000129274 -0.000125523 0.100091)
(-0.000151283 -0.000124626 0.10007)
(-0.000172937 -0.000123177 0.100065)
(-0.000194208 -0.000121107 0.10008)
(-0.000214991 -0.000118383 0.100115)
(-0.000234975 -0.000114943 0.100161)
(-0.0002533 -0.000110513 0.100195)
(-0.000267171 -0.000104124 0.100116)
(-0.000250861 -8.84085e-05 0.0992444)
(-0.000179117 -5.40608e-05 0.0927142)
(0.000172875 -6.84356e-05 0.0922052)
(0.000241397 -0.000110821 0.0990216)
(0.000259163 -0.000130352 0.100019)
(0.000245736 -0.000137497 0.100133)
(0.000227562 -0.000142013 0.100119)
(0.000207471 -0.000145273 0.10009)
(0.000186451 -0.000147742 0.100074)
(0.000164931 -0.000149564 0.100076)
(0.000143114 -0.00015081 0.100096)
(0.000121076 -0.000151574 0.10013)
(9.8866e-05 -0.000151969 0.10017)
(7.65038e-05 -0.000152117 0.100209)
(5.40121e-05 -0.000152135 0.100243)
(3.14255e-05 -0.000152118 0.100265)
(8.78145e-06 -0.000152133 0.100274)
(-1.38689e-05 -0.000152214 0.100268)
(-3.64714e-05 -0.000152352 0.100247)
(-5.8973e-05 -0.000152505 0.100213)
(-8.13308e-05 -0.000152588 0.100169)
(-0.000103508 -0.000152484 0.10012)
(-0.00012548 -0.000152052 0.100074)
(-0.00014722 -0.00015114 0.100038)
(-0.000168692 -0.000149611 0.100019)
(-0.000189824 -0.000147354 0.100023)
(-0.000210434 -0.000144295 0.100051)
(-0.000230106 -0.000140309 0.100095)
(-0.000247903 -0.000134973 0.100128)
(-0.00026101 -0.000126987 0.100035)
(-0.000243028 -0.000106853 0.0990541)
(-0.000173778 -6.4838e-05 0.092235)
(0.000166449 -7.74934e-05 0.0915784)
(0.000231624 -0.000127139 0.0987652)
(0.000251372 -0.000151661 0.0999193)
(0.000238819 -0.000160538 0.100061)
(0.000221281 -0.00016603 0.100056)
(0.000201602 -0.000169903 0.100036)
(0.000180854 -0.000172803 0.100031)
(0.000159629 -0.00017493 0.100049)
(0.000138192 -0.000176422 0.100086)
(0.000116675 -0.000177381 0.100135)
(9.51265e-05 -0.000177942 0.100189)
(7.35613e-05 -0.00017823 0.10024)
(5.19807e-05 -0.000178356 0.100282)
(3.03777e-05 -0.000178419 0.10031)
(8.7576e-06 -0.000178481 0.100321)
(-1.28647e-05 -0.000178578 0.100314)
(-3.4471e-05 -0.000178705 0.100289)
(-5.60468e-05 -0.00017882 0.100248)
(-7.75794e-05 -0.000178844 0.100193)
(-9.90668e-05 -0.000178662 0.100131)
(-0.000120502 -0.000178137 0.100067)
(-0.000141865 -0.000177106 0.100011)
(-0.000163097 -0.00017541 0.0999722)
(-0.000184072 -0.000172906 0.0999584)
(-0.000204529 -0.000169448 0.0999727)
(-0.0002239 -0.000164825 0.100009)
(-0.000241128 -0.000158435 0.100035)
(-0.00025344 -0.00014855 0.099918)
(-0.00023353 -0.000123184 0.0987877)
(-0.000167652 -7.36979e-05 0.0916055)
(0.000159569 -8.41327e-05 0.0907738)
(0.000220206 -0.000140741 0.0984056)
(0.000242116 -0.000171309 0.0997757)
(0.000230446 -0.000182359 0.099961)
(0.000213553 -0.000189034 0.0999742)
(0.000194263 -0.000193689 0.0999723)
(0.000173824 -0.000197118 0.0999888)
(0.000152966 -0.000199683 0.100029)
(0.000132049 -0.000201543 0.100088)
(0.00011123 -0.000202845 0.100156)
(9.05512e-05 -0.00020371 0.100226)
(7.00052e-05 -0.000204257 0.100288)
(4.95451e-05 -0.000204587 0.100338)
(2.91323e-05 -0.000204786 0.10037)
(8.73542e-06 -0.000204921 0.100384)
(-1.16637e-05 -0.000205023 0.100376)
(-3.20746e-05 -0.000205093 0.100348)
(-5.25106e-05 -0.000205089 0.100301)
(-7.29987e-05 -0.000204941 0.100237)
(-9.35743e-05 -0.000204549 0.10016)
(-0.000114269 -0.000203781 0.100078)
(-0.000135081 -0.000202495 0.0999984)
(-0.000155959 -0.000200518 0.0999333)
(-0.000176735 -0.000197671 0.0998926)
(-0.000197047 -0.000193748 0.0998826)
(-0.000216165 -0.000188372 0.099899)
(-0.000232879 -0.000180734 0.0999081)
(-0.000244389 -0.000168536 0.0997521)
(-0.000222424 -0.000136832 0.0984147)
(-0.000161131 -8.00924e-05 0.0907972)
(0.000152865 -8.80299e-05 0.0897345)
(0.000207088 -0.000150895 0.0978883)
(0.000231182 -0.000188935 0.0995663)
(0.000220357 -0.000202675 0.0998237)
(0.0002041 -0.000210886 0.0998736)
(0.000185219 -0.000216489 0.0999043)
(0.000165149 -0.000220606 0.0999531)
(0.000144802 -0.000223746 0.100023)
(0.000124622 -0.000226141 0.100108)
(0.000104754 -0.000227947 0.100198)
(8.52097e-05 -0.000229265 0.100282)
(6.59157e-05 -0.000230192 0.100355)
(4.67866e-05 -0.00023081 0.10041)
(2.77363e-05 -0.0002312 0.100446)
(8.7134e-06 -0.000231427 0.10046)
(-1.03151e-05 -0.000231528 0.100453)
(-2.93692e-05 -0.0002315 0.100424)
(-4.84804e-05 -0.000231311 0.100373)
(-6.77024e-05 -0.00023089 0.100302)
(-8.71071e-05 -0.000230145 0.100213)
(-0.000106782 -0.000228982 0.100113)
(-0.000126787 -0.000227267 0.100009)
(-0.000147094 -0.000224861 0.0999123)
(-0.000167549 -0.000221555 0.0998354)
(-0.000187691 -0.000217056 0.0997876)
(-0.000206595 -0.000210799 0.0997675)
(-0.000222838 -0.000201638 0.0997392)
(-0.000233667 -0.000186584 0.0995147)
(-0.000209639 -0.000147118 0.0978797)
(-0.000154899 -8.36976e-05 0.0897522)
(0.000146135 -8.88881e-05 0.0883528)
(0.000191878 -0.000156764 0.0971152)
(0.000218044 -0.000203626 0.0992555)
(0.000208137 -0.000220928 0.0996407)
(0.00019253 -0.000231162 0.0997576)
(0.000174108 -0.000237986 0.0998398)
(0.000154549 -0.000243 0.0999324)
(0.000134987 -0.000246907 0.100039)
(0.000115884 -0.000250047 0.100152)
(9.73356e-05 -0.000252526 0.100261)
(7.924e-05 -0.00025445 0.100358)
(6.14537e-05 -0.000255852 0.100437)
(4.38287e-05 -0.000256825 0.100496)
(2.62628e-05 -0.000257438 0.100533)
(8.69722e-06 -0.000257774 0.100548)
(-8.88314e-06 -0.000257866 0.100541)
(-2.64871e-05 -0.000257723 0.100512)
(-4.41368e-05 -0.0002573 0.100461)
(-6.18823e-05 -0.000256525 0.100387)
(-7.98383e-05 -0.00025532 0.100291)
(-9.81427e-05 -0.000253592 0.100176)
(-0.000116937 -0.00025127 0.100049)
(-0.000136317 -0.000248228 0.0999188)
(-0.000156172 -0.000244285 0.0997984)
(-0.000176017 -0.000239044 0.0996992)
(-0.000194719 -0.0002317 0.0996206)
(-0.000210528 -0.000220562 0.099521)
(-0.000220659 -0.000201884 0.0991701)
(-0.000194829 -0.00015325 0.0970835)
(-0.000148703 -8.43126e-05 0.0883604)
(0.000139287 -8.84249e-05 0.0865034)
(0.000174488 -0.000154383 0.0959029)
(0.000202076 -0.000213776 0.0987785)
(0.000193131 -0.000236349 0.0994006)
(0.000178077 -0.000248976 0.0996294)
(0.000160127 -0.000257337 0.0997819)
(0.000141414 -0.000263516 0.0999273)
(0.000123155 -0.000268509 0.100074)
(0.000105736 -0.000272638 0.100214)
(8.90247e-05 -0.000276022 0.100339)
(7.27798e-05 -0.000278658 0.100443)
(5.67599e-05 -0.000280624 0.100525)
(4.07874e-05 -0.000281974 0.100584)
(2.47697e-05 -0.00028284 0.10062)
(8.68766e-06 -0.000283283 0.100635)
(-7.43222e-06 -0.000283376 0.10063)
(-2.35539e-05 -0.000283101 0.100603)
(-3.96459e-05 -0.000282424 0.100554)
(-5.57469e-05 -0.000281255 0.100481)
(-7.19423e-05 -0.000279499 0.100384)
(-8.84264e-05 -0.000277068 0.100261)
(-0.00010544 -0.000273905 0.100116)
(-0.000123229 -0.00026996 0.0999542)
(-0.000141923 -0.000265081 0.099787)
(-0.000161147 -0.000258838 0.0996256)
(-0.000179593 -0.000250168 0.0994665)
(-0.000195209 -0.000236776 0.0992463)
(-0.000204639 -0.000212801 0.0986556)
(-0.000177715 -0.000151407 0.0958428)
(-0.000142436 -8.3887e-05 0.0864968)
(0.000141156 -6.18699e-05 0.0839355)
(0.000152788 -0.000146968 0.0938631)
(0.000181498 -0.000221987 0.0979944)
(0.000173745 -0.000247532 0.0990658)
(0.000158425 -0.000262587 0.0994515)
(0.000140982 -0.000272826 0.0996906)
(0.000124016 -0.000280685 0.0998997)
(0.000108252 -0.00028716 0.10009)
(9.35703e-05 -0.000292582 0.100256)
(7.95293e-05 -0.000296993 0.100394)
(6.56866e-05 -0.000300422 0.100503)
(5.17596e-05 -0.000302944 0.100585)
(3.76067e-05 -0.000304704 0.100642)
(2.32157e-05 -0.00030581 0.100677)
(8.64961e-06 -0.000306387 0.100692)
(-5.99063e-06 -0.000306466 0.100688)
(-2.0579e-05 -0.00030607 0.100664)
(-3.50301e-05 -0.000305128 0.100619)
(-4.92707e-05 -0.000303557 0.100551)
(-6.33444e-05 -0.000301221 0.100456)
(-7.73926e-05 -0.000298014 0.100331)
(-9.17185e-05 -0.000293848 0.100173)
(-0.000106778 -0.00028868 0.0999839)
(-0.000123024 -0.000282444 0.0997679)
(-0.000140605 -0.000274721 0.099534)
(-0.000158821 -0.000264367 0.0992758)
(-0.000174901 -0.000248839 0.0988853)
(-0.000183603 -0.00022202 0.097837)
(-0.000155972 -0.000144945 0.0937733)