/*--------------------------------*- C++ -*----------------------------------*\
| =========                 |                                                 |
| \\      /  F ield         | OpenFOAM: The Open Source CFD Toolbox           |
|  \\    /   O peration     | Version:  2312                                  |
|   \\  /    A nd           | Website:  www.openfoam.com                      |
|    \\/     M anipulation  |                                                 |
\*---------------------------------------------------------------------------*/
FoamFile
{
    version     2.0;
    format      ascii;
    arch        "LSB;label=32;scalar=64";
    class       volScalarField;
    location    "2/shell";
    object      alphat;
}
// * * * * * * * * * * * * * * * * * * * * * * * * * * * * * * * * * * * * * //

dimensions      [1 -1 -1 0 0 0 0];

internalField   nonuniform List<scalar> 
7335
(
0.0306675
0.0195351
0.00320951
0.0043139
0.0215625
0.0499432
0.0315556
0.0220109
0.0237625
0.0246324
0.0158318
0.00522112
0.0335323
0.0137582
0.0172687
0.0441532
0.0270132
0.057816
0.0172466
0.0526039
0.0403644
0.0156764
0.0157733
0.00816158
0.0197886
0.00987929
0.0053951
0.01414
0.0194415
0.0606871
0.0140069
0.0636797
0.00614267
0.0270558
0.107962
0.0531868
0.0161732
0.0522266
0.0241749
0.0492229
0.0434568
0.0528301
0.0188544
0.0352348
0.0626559
0.043199
0.016462
0.0148979
0.0199183
0.0291392
0.0155733
0.0188593
0.033816
0.0261203
0.000523406
0.0233028
0.000121453
0.050405
0.0325358
0.0265669
0.0201248
0.0190482
0.0134209
0.0493198
0.0414973
0.0185004
0.0330658
0.061187
0.0185296
0.00632016
0.0301521
0.01337
0.0161455
0.020997
0.00641727
0.0048034
0.0332239
0.0463712
0.0486171
0.00240731
0.0188818
0.0181881
0.014196
0.0286785
0.0423936
0.0466235
0.0178053
0.00303855
0.0111695
0.0603763
0.0188847
0.00494823
0.0394392
0.00373991
0.0548452
0.0192901
0.00626058
0.00404608
0.0230448
0.0206314
0.0394961
0.0371769
0.0138286
0.0499698
0.0321695
0.0177635
0.0142031
0.00114186
0.0254555
0.0108893
0.0347837
0.0162067
0.0167066
0.00900582
0.0461557
0.0193172
0.0398664
0.00768579
0.000250053
0.0381779
0.034641
0.00516171
0.0031241
0.060466
0.0126494
0.0153233
0.0357773
0.00630594
0.00952778
0.0391523
0.019192
0.0367455
0.00260676
0.0213669
0.00936139
0.0133776
0.00953051
0.0202709
0.0415087
0.0196004
0.0188553
0.0180112
0.0182604
0.0204279
0.0169684
0.0184112
0.016629
0.0167648
0.00823616
0.0223696
0.0227284
0.0196518
0.0521956
0.0136965
0.0196024
0.0194674
0.0264825
0.11477
0.0171031
0.018983
0.0184097
0.00413725
0.0178089
0.0168903
0.0170416
0.0200577
0.0606934
0.0206589
0.0270727
0.0503874
0.0179699
0.0183298
0.0516912
0.0474289
0.00445355
0.0222013
0.00256553
0.0214351
0.0527459
0.0456638
0.022875
0.00717254
0.0219912
0.0557272
0.0294967
0.0162001
0.0314329
0.00675015
0.0264665
0.0144249
0.0283852
0.00803776
0.0130451
0.0304082
0.0360521
0.00387011
0.0100728
0.0195835
0.0118558
0.0219221
0.0422548
0.0194302
0.00444893
0.018666
0.00877827
0.00697024
0.0146973
0.0636511
0.0132648
0.00847459
0.0120304
0.0483465
0.0172501
0.0130629
0.0178076
0.00297283
0.000649819
0.03937
0.00218095
0.0264013
0.0559306
0.00257665
0.0513834
0.00454314
0.0195453
0.0119533
0.00751469
0.020145
0.0144917
0.0260515
0.0247161
0.0155875
0.0182317
0.00888529
0.0152202
0.00820935
0.00509514
0.011539
0.00580495
0.00238388
0.0065895
0.11219
0.0640023
0.0102897
0.0211017
0.041731
0.0191662
0.0024053
0.0109619
0.00681095
0.0164508
0.0140057
0.0172354
0.0168228
0.0461865
0.00393483
0.0230844
0.0481693
0.015315
0.0190188
0.00527179
0.00416729
0.0091017
0.00433695
0.0198114
0.0222106
0.016637
0.0248125
0.0267175
0.0107977
0.0231116
0.0668794
0.0190985
0.0140868
0.0198888
0.0658134
0.0163107
0.010783
0.0163647
0.0147909
0.012463
0.017423
0.0363774
0.0222421
0.0452425
0.0118668
0.0555654
0.049063
0.013941
0.00844342
0.00425131
0.0168831
0.0241946
0.0226714
0.0162801
0.0133235
0.0129438
0.0209535
0.0198103
0.0134876
0.0480303
0.0030785
0.028871
0.00860992
0.0420125
0.0223004
0.0188026
0.0222857
0.00370412
0.0295242
0.0236427
0.028255
0.0511852
0.0101531
0.0153283
0.00991608
0.0491871
0.0212865
0.0159769
0.00896931
0.0177269
0.0180113
0.0158952
0.0456578
0.020678
0.0593272
0.0360475
0.0170102
0.05326
0.0175727
0.0167649
0.0531425
0.0259743
0.0411623
0.0115996
0.0259885
0.00925493
0.0276861
0.0183417
0.00354121
0.0118415
0.0048255
0.0137957
0.00662247
0.0126522
0.0168108
0.0113282
0.0201725
0.0175684
0.0133022
0.00884699
0.0177647
0.0166753
0.051175
0.0187717
0.00221832
0.0215198
0.0144239
0.0107275
0.0296404
0.017484
0.0158982
0.00845586
0.0179877
0.0232463
0.0217569
0.0187697
0.020933
0.00318158
0.0179161
0.0131688
0.0492674
0.0552198
0.0191983
0.0164763
0.0611608
0.0436761
0.0151022
0.0148962
0.0225182
0.0415663
0.0242187
0.0159636
0.0129101
0.0452394
0.0178323
0.0213244
0.0376726
0.008551
0.00978848
0.0166007
0.0215661
0.0402873
0.0428188
0.0160897
0.0114869
0.0193057
3.79592e-05
0.0216281
0.0468606
0.0172263
0.00640966
0.0178472
0.0192819
0.0201788
0.0182432
0.0175016
0.0192716
0.0504618
0.017253
0.0182586
0.0071415
0.018211
0.0428818
0.0449643
0.0108004
0.0337837
0.0095527
0.0188917
0.0100139
0.020202
0.0203122
0.0352269
0.0515825
0.0548561
0.0180794
0.0470693
0.0124251
0.0368264
0.0538508
0.00360462
0.00364844
0.0153574
0.0589315
0.0247261
0.0212736
0.0198755
0.0181351
0.0239385
0.010849
0.0187654
0.0261815
0.0518295
0.0306463
0.00816609
0.0235374
0.0178611
0.0183123
0.0494409
0.028983
0.0625545
0.0424328
0.0282293
0.0219445
0.0527714
0.0434555
0.0179071
0.0249681
0.0680862
0.0183844
0.00827381
0.0403076
0.0180664
0.0380386
0.022118
0.00401342
0.0242007
0.0394402
0.0106502
0.00668342
0.00384416
0.0266478
0.0524037
0.00439253
8.87817e-05
0.0433654
0.00302
0.0340615
0.0143218
0.0201944
0.0379166
0.0274949
0.0479688
0.0200268
0.0174277
0.0220262
0.0180045
0.0073979
0.0430022
0.257032
0.0339238
0.0229803
0.00678971
0.00330121
0.00701083
0.0327612
0.0172169
0.00305079
0.00236705
0.0159409
0.0111068
0.0104239
0.0173165
0.0234837
0.0112306
0.0188931
0.038911
0.0166497
0.0178174
0.0362704
0.0527952
0.0167322
0.00566436
0.0187745
0.018917
0.0122199
0.0201696
0.0381079
0.0652918
0.0116801
0.0054138
0.0515548
0.0159516
0.00796655
0.00542924
0.044974
0.0182048
0.0195087
0.0196019
0.0171911
0.00193197
0.00543435
0.0188924
0.0529715
0.021514
0.0214202
0.0192798
0.0237642
0.0539236
0.039177
0.0221713
0.0175887
0.0191745
0.029613
0.016454
0.0268744
0.0521897
0.055097
0.0106601
0.0403147
0.0402691
0.00814915
0.00997106
0.0230659
0.0194729
0.0279686
0.0296803
0.0394105
8.03132e-05
0.00518796
0.013083
0.0223051
0.0157475
0.0158107
0.0395027
0.0487546
0.0458709
0.012175
0.0408831
0.0172205
0.0188785
0.0391788
0.0204595
0.0170464
0.0185784
0.0207736
0.00782578
0.0045415
0.00988364
0.0101538
0.00288564
0.0414202
0.0247147
0.0530539
0.065724
0.0346071
0.00539973
0.00431752
0.0173963
0.0367252
0.00814201
0.00970283
0.0158535
0.0149909
0.0228776
0.0203058
0.00698927
0.0160186
0.0381063
0.0446631
0.022262
0.0177536
0.00244824
0.0167638
0.0191675
0.018023
0.0302786
0.014439
0.0470392
0.016333
0.035547
0.0164736
0.0143235
0.0536709
0.0181792
0.0548531
0.0383385
0.0120756
0.0243372
0.0202286
0.0237072
0.0252771
0.0269839
0.0223369
0.00839776
0.0129879
0.0270013
0.0175234
0.0123619
0.0170549
0.0223566
0.0501734
0.01257
0.0181514
0.0202019
0.00447825
0.0114857
0.00528989
0.0549584
0.0285092
0.00790782
0.0156909
0.00351777
0.00703776
0.0201164
0.00529395
0.00423094
0.0213174
0.0325744
0.00937496
0.0219474
0.0158621
0.0353455
0.0183879
0.0189761
0.0201275
0.00684778
0.0194377
0.00732985
0.000756004
0.0342149
0.0107097
0.00231376
0.040441
0.0231151
0.026919
0.00954668
0.0104949
0.0485589
0.0185879
0.0061317
0.0303189
0.0268102
0.0167322
0.0203852
0.403433
0.0130184
0.0252613
0.00793087
0.00827534
0.0499639
0.0187655
0.0199982
0.00382658
0.0169681
0.00998101
0.00556828
0.0111944
0.00515731
0.0319935
0.0112812
0.0121596
0.0585676
0.011548
0.0172753
0.0460299
0.0159111
0.0307729
0.0278083
0.0509227
0.0183171
0.0454715
0.0355921
0.000444952
0.0182147
0.0206171
0.00551278
0.0095421
0.00234441
0.00036916
0.0118312
0.028371
0.00768479
0.0219032
0.0395939
0.0195886
0.0449113
0.0124254
0.0181333
0.00481712
0.00756722
0.0130116
0.00527881
0.0112242
0.0548316
0.023847
0.0220204
0.0416213
0.0178346
0.0142361
0.0478579
0.00280503
0.0177878
0.0245784
0.0239469
0.017942
0.0128544
0.0464267
0.0492467
0.0327612
0.0440282
0.113414
0.00209749
0.0130295
0.011653
0.0193797
0.0153148
0.0154497
0.0381358
0.011509
0.0158501
0.0414434
0.014558
0.00152018
0.0520841
0.0584109
0.0143872
0.0246679
0.0146107
0.0151179
0.0498713
0.0223632
0.0251625
0.036346
0.0426073
0.0240389
0.0246954
0.0158788
0.0319499
0.0112961
0.0182951
0.0291438
0.00460154
0.00851856
0.0114362
0.0069165
0.0297487
0.014166
0.00509246
0.00313306
0.0137888
0.0120218
0.0196428
0.0194154
0.0217339
0.0292642
0.0208947
0.0100606
0.045546
0.0538966
0.0199788
0.00344626
0.0437696
0.0172412
0.0220326
0.0144045
0.0232017
0.0143631
0.0365381
0.0604757
0.00489684
0.0491335
0.00406379
0.0071421
0.0196771
0.0307307
0.0582528
0.0241088
0.0173356
0.0168874
0.0390749
0.0171566
0.0117165
0.0104232
0.00961777
0.0244978
0.0119782
0.0157727
0.0205718
0.0209757
0.0310961
0.0401663
0.0129998
0.0282118
0.0188802
0.0176416
0.0294495
0.0351506
0.00751008
0.0120319
0.0152034
0.0124257
0.0176448
0.0236493
0.0284545
0.00323023
0.00734794
0.0512153
0.0644511
0.0324648
0.0325865
0.0370519
0.0210711
0.0167684
0.0178875
0.0172505
0.0621764
0.00624613
0.026703
0.0625059
0.022315
0.0181574
0.0116662
0.0172968
0.049439
0.016777
0.00994044
0.0596557
0.0272005
0.0179653
0.00356443
0.0556402
0.0063206
0.00735731
0.00777581
0.0104231
0.028135
0.0133623
0.0211435
0.0053013
0.0492251
0.0160861
0.0527181
0.00563551
0.00788588
0.00879738
0.0508804
0.0202744
0.0445897
0.0532661
0.00136281
0.00338663
0.0207343
0.00851793
0.0167997
0.026227
0.0154027
0.0242143
0.0488661
0.0254226
0.011476
0.049888
0.0199126
0.0151257
0.0158366
0.0110958
0.0161099
0.00959248
0.0171199
0.0476769
0.0296987
0.0278027
0.0222599
0.0534767
0.0104409
0.00098324
0.0165905
0.046588
0.0438835
0.0574272
0.0156193
0.0434631
0.0482889
0.0130375
0.0189258
0.0227357
0.00117555
0.0143849
0.0122915
3.9463e-05
0.0173116
0.0490509
0.0267866
0.0129624
0.0166923
0.0127529
0.0180457
0.0557314
0.0407567
0.0469869
0.00975894
0.0377843
0.0183381
0.0182043
0.0481138
0.0197342
0.0372105
0.0188826
0.0159873
0.0166679
0.0344297
0.0199277
0.0275207
0.0165134
0.029194
0.0158848
0.0165259
0.0350251
0.00663219
0.0298906
0.0232591
0.0332488
0.021952
0.0201091
0.000133457
0.00010761
0.0190258
0.0164137
0.0607959
0.0198259
0.0443875
0.0426927
0.0202509
0.0419416
0.0413084
0.0274383
0.0168386
0.015304
0.0130642
0.0488258
0.0221369
0.0211384
0.0170782
0.0286727
0.0223212
0.0547046
0.0233657
0.0100685
0.00757432
0.00735139
0.0317329
0.0103476
0.0119921
0.0661235
0.014226
0.0256816
0.00276119
0.0277678
0.0100252
0.0377496
0.0352682
0.0492763
0.0410162
0.0180746
0.0261533
0.00271093
0.0193175
0.0237062
0.00865229
0.0159832
0.00641274
0.0365069
0.0600838
0.0263652
0.00119505
0.00254601
0.00397742
0.018303
0.0388558
0.0159571
0.0199669
0.0238589
0.00836592
0.00245764
0.0352529
0.0140634
0.0356602
0.0211343
0.0333579
0.0350137
0.0186722
0.0166812
0.052882
0.0109435
0.0480866
0.0118071
0.0196215
0.016318
0.0031676
0.00758605
0.00313317
0.0204566
0.016573
0.054137
0.0222889
0.0226852
0.020133
0.0388457
0.0141636
0.0258683
0.00379188
0.0363326
0.0173755
0.0149523
0.0171827
0.00775732
0.0312983
0.0428746
0.0146896
0.00978747
0.00270235
0.03053
0.00693049
0.0295975
0.0201757
0.0195556
0.0141339
0.0190834
0.0131096
0.036571
0.00237635
0.00320543
0.0264693
0.0129742
0.0329081
0.0216424
0.0208042
0.0180514
0.00699361
0.0459232
0.00112918
0.0100014
0.0454462
0.00801337
0.0294991
0.0267863
0.015549
0.0166463
0.0189018
0.0149161
0.054646
0.0136339
0.0172346
0.0114985
0.0583063
0.0240778
0.00447132
0.0194816
0.0167423
0.0143674
0.0492573
0.0401923
0.0320946
0.016598
0.0517165
0.014267
0.0195289
0.0361653
0.0159685
0.0167638
0.0335883
0.0305449
0.017529
0.0540185
0.00249951
0.0390842
0.0183393
0.0146255
0.0281946
0.00284766
0.0299318
0.0197732
0.0162443
0.0401525
0.00894039
0.00817996
0.0443532
0.0189668
0.0489731
0.0244131
0.00561978
0.0207124
0.00500075
0.0257157
0.0405854
0.0091568
0.0580322
0.0173633
0.0148389
0.0106507
0.050659
0.00536086
0.0110176
0.0274764
0.0173344
0.0175964
0.0143363
0.0152324
0.0122922
0.0171798
0.0222224
0.0467358
0.0199953
0.00830544
0.00229191
0.0433324
0.0176814
0.0202448
0.027814
0.00648581
0.0192163
0.0167898
0.0236289
0.0534625
0.0148967
0.050415
0.0309896
0.0158522
0.0566888
0.0351711
0.0180044
0.0124469
0.0262779
0.0122
0.0353099
0.0150008
0.00175501
0.0135916
0.0038156
0.00346639
0.0174254
0.0367095
0.00433498
0.0338559
0.00329048
0.00601661
0.0122685
0.0169978
0.0245616
0.0429465
0.015551
0.0127424
0.0119614
0.0194636
0.0297119
0.0167093
0.0442391
0.0395796
0.0160004
0.00817605
0.0154875
0.00295966
0.0290071
0.0179979
0.0198157
0.0261001
0.0271709
0.0195003
0.0177331
0.021804
0.0167293
0.0130792
0.00531604
0.0344271
0.0150062
0.0549668
0.00332509
0.0613546
0.0461601
0.00811817
0.0192085
0.0151844
0.0112441
0.00947762
0.0236366
0.0103067
0.0292732
0.0530169
0.051268
0.00357011
0.0205458
0.0227998
0.0361474
0.036666
0.046978
0.00244741
0.0238442
0.0463876
0.0187476
0.0217422
0.016833
0.0155813
0.0272564
0.0219485
0.0245199
0.0240298
0.00734346
0.0163215
0.0109004
0.015004
0.0404286
0.00722202
0.00842544
0.00970294
0.0675637
0.0212245
0.0487094
0.0150262
0.00481189
0.0342257
0.0196622
0.0263639
0.0110835
0.0175747
0.0173118
0.0174419
0.0106188
0.0189393
0.0020122
0.0413109
0.0174647
0.0250848
0.0619221
0.0171916
0.0115738
0.00965991
0.0580963
0.014998
0.019666
0.0162599
0.0174646
0.0420936
0.0381962
0.0165317
0.0037704
0.0165395
0.0168184
0.0166785
0.0173652
0.01962
0.0268735
0.0464062
0.0181224
0.0212612
0.0160029
0.0503877
0.0412972
0.0415737
0.0482082
0.0160891
0.0190579
0.0171747
0.0179992
0.0424941
0.0227448
0.0189707
0.0243564
0.0121903
0.00935837
0.016098
0.0172078
0.0617317
0.0172182
0.00538374
0.0274971
0.0470012
0.0165417
0.0250575
0.0482166
0.00942664
0.0175343
0.0184703
0.015792
0.0163117
0.0231962
0.0167314
0.0274107
0.024138
0.0218624
0.0210233
0.0527631
0.0155142
0.0253483
0.04577
0.0274691
0.0344133
0.0247853
0.00886823
0.0216126
0.0252939
0.0214263
0.027153
0.0467432
0.00940628
0.0194886
0.0205652
0.0395831
0.0228867
0.00662744
0.0483611
0.0150294
0.0365308
0.0501641
0.0444333
0.0283912
0.0638708
0.0446468
0.0199948
0.0117524
0.0493663
0.0262518
0.00429623
0.0239176
0.0136371
0.0108503
0.0274091
0.0176215
0.0466671
0.0238063
0.0209313
0.0213758
0.027286
0.0197784
0.0227576
0.0279931
0.0237488
0.0288729
0.0292802
0.0214232
0.0167802
0.0286485
0.0107374
0.0265712
0.036744
0.0406024
0.00621355
0.0114428
0.039292
0.0392568
0.0168915
0.017132
0.0266441
0.0166332
0.0432133
0.0192887
0.0491009
0.0146721
0.0142026
0.0371462
0.0147991
0.016061
0.0184153
0.00754759
0.0220702
0.0225949
0.0165683
0.0221827
0.0120884
0.035313
0.0216083
0.00539647
0.0459841
0.00331912
0.0344234
0.0325927
0.0248754
0.0661696
0.0289407
0.0252275
0.0224957
0.0197285
0.0241001
0.0238389
0.0186042
0.0104477
0.00834735
0.0524758
0.015078
0.0235956
0.0148083
0.0452953
0.0170445
0.0410262
0.0288217
0.00849944
0.0201512
0.036267
0.00616082
0.0512861
0.018881
0.0247711
0.00848485
0.0141213
0.0414002
0.0290874
0.0219787
0.0395782
0.0195721
0.0396239
0.0236375
0.0329185
0.0244254
0.0188411
0.0407009
0.0160986
0.0215331
0.016557
0.00419883
0.0122296
0.00475758
0.0219811
0.0408362
0.00362846
0.0224242
0.0362177
0.0173306
0.0585945
0.0045845
9.07265e-05
0.052044
0.0499004
0.0266111
0.0074982
0.0246911
0.0243458
0.0162135
0.00655511
0.0355788
0.0235142
0.0535574
0.0564605
0.000131043
0.0174072
0.0567025
0.0241347
0.0495849
0.0349473
0.0197918
0.0214559
0.0428729
0.018347
0.00434909
0.0458229
0.0273442
0.0392587
0.0161584
0.0603092
0.0183637
0.0318292
0.00424415
0.0160501
0.0242147
0.031206
0.0168972
0.0414539
0.0214267
0.00374054
0.000655985
0.016999
0.0147499
0.0264772
0.0492281
0.010128
0.0167845
0.0225421
0.0218109
0.0211585
0.0267117
0.03227
0.0493014
0.0203226
0.02038
0.014277
0.0286511
0.0110667
0.0120368
0.0418762
0.0212986
0.0519044
0.0282102
0.0477387
0.0566137
0.0289091
0.0164836
0.0290809
0.0167281
0.020067
0.0363694
0.0132305
0.0168185
0.0149728
0.0228272
0.0210814
0.0256794
0.0559657
0.0184352
0.00382487
0.01809
0.0430263
0.00886629
0.0179659
0.0457836
0.0509276
0.0145395
0.0182794
0.051788
0.00482966
0.0171917
0.00832248
0.00779959
0.0213059
0.0546006
0.011857
0.0555729
0.00326774
0.0133177
0.00791244
0.0159749
0.0111377
0.00447183
0.00588677
0.0171889
0.0143194
0.0260042
0.0491379
0.0290563
0.0167083
0.0171751
0.0321637
0.00140115
0.0594302
0.0459384
0.0231754
0.0294652
0.0197917
0.0146669
0.0234951
0.0296801
0.0134161
0.0194883
0.0360776
0.0590703
0.0268959
0.00244528
0.0452165
0.00250984
0.0174271
0.0225188
0.0108919
0.00243488
0.0140641
0.0283621
0.0142025
0.0550206
0.0233017
0.0159149
0.0139705
0.00343155
0.0184669
0.0234696
0.0228107
0.0407271
0.0151658
0.0220578
0.0134002
0.0521134
0.00628007
0.0283936
0.0114076
0.0224153
0.00768897
0.0177925
0.0354696
0.0425908
0.00342867
0.0157166
0.0172325
0.0212043
0.0389949
7.94651e-05
0.00648577
0.021731
0.0048396
0.0329354
0.0145654
0.0158431
0.0113819
0.028506
0.0161753
0.00251442
0.0291686
0.0112238
0.0448455
0.0324754
0.0175436
0.0141686
0.0154433
0.021077
0.011248
0.00909686
0.0180731
0.0368999
0.0136836
0.0276528
0.0139166
0.00934527
0.0371612
0.0411965
0.00105842
0.00405062
0.0376035
0.0120636
0.0111885
0.0568941
0.0152394
0.0155064
0.0177961
0.0443488
0.0182981
0.040602
0.0423225
0.00721
0.0402742
0.0104108
0.0357827
0.0180691
0.0334213
0.016057
0.00289901
0.0131867
0.0230044
0.0349982
0.0187376
0.00766149
0.0113668
0.00927705
0.0067814
0.018606
0.00705141
0.0517477
0.0356973
0.0274486
0.00993068
0.0422086
0.0182992
0.0282301
0.0567197
0.0506897
0.00579262
0.00620586
0.0342387
0.0182305
0.0172288
0.0173537
0.0563403
0.0179478
0.00773654
0.0119252
0.0570981
0.0073411
0.028591
0.0287865
0.0070837
0.0178861
0.0138543
0.04784
0.0519519
0.0578018
0.0344113
0.00551897
0.0262536
0.0542631
0.0207623
0.00579766
0.0274963
0.0155785
0.0158061
0.0431859
0.0237816
0.00386284
0.0294483
0.0255893
0.0489172
0.0246841
0.021799
0.0126241
0.00829221
0.00987954
0.0106878
0.0383183
0.0272208
0.0131851
0.0203848
0.0172335
0.0161983
0.0151314
0.0153171
0.0116655
0.00713481
0.0106658
0.0139266
0.0610339
0.049307
0.00220892
0.0287059
0.0223398
0.0120763
0.0124622
0.0365926
0.00965352
0.0155753
0.0490754
0.0391331
0.0243711
0.047037
0.021991
0.0115895
0.0371908
0.0214838
0.018334
0.0188286
0.0143922
0.0267962
0.0609015
0.0261264
0.0163811
0.042792
0.0450824
0.0219305
0.0181909
0.0073134
0.0191195
0.0107939
0.0540923
0.0343026
0.0232236
0.0264824
0.0161214
0.0212797
0.0152681
0.0499222
0.0204338
0.0162384
0.00940205
0.0592511
0.00334801
0.0312434
0.0232541
0.0207932
0.052198
0.0312968
0.00867385
0.0177824
0.00773427
0.011938
0.00459833
0.0672138
0.0298938
0.00938558
0.0136261
0.0102836
0.0275429
0.01633
0.0362092
0.0393144
0.0252984
0.0141794
0.0456877
0.00254464
0.0140432
0.0591722
0.0276328
0.0312597
0.0490285
0.0174134
0.00182119
0.014787
0.01388
0.00851039
0.0213133
0.00465347
0.0142197
0.00923148
0.0186807
0.013335
0.0435744
0.00404121
0.00136847
0.0524449
0.0243492
0.011757
0.0141928
0.0276615
0.0209741
0.0188744
0.0132233
0.0480079
0.0558908
0.0191547
0.0184103
0.0114393
0.0257316
0.0271402
0.00310331
0.0626325
0.0202682
0.0297273
0.003759
0.027355
0.0157496
0.0432135
0.0235478
0.0261048
0.00834796
0.0185318
0.0112373
0.0155374
0.00228061
0.002833
0.062294
0.0248646
0.0234801
0.0187314
0.0214988
0.0303676
0.000397035
0.00767416
0.00425765
0.0137084
0.0396491
0.00465153
0.0191371
0.0115033
0.0256445
0.0196547
0.0319611
0.0248943
0.0284352
0.0564303
0.0173886
0.0200236
0.0325903
0.0296311
0.0165245
0.0100307
0.0130394
0.0364042
0.0309629
0.0316226
0.0081903
0.0383316
0.00609123
0.0384937
0.00051573
0.0518512
0.0395947
0.0347463
0.0178639
0.0248061
0.00961205
0.00739223
0.0456311
0.0105139
0.0451848
0.0455654
0.0238047
0.0187019
0.0174386
0.0436968
0.0185642
0.0411842
0.0234016
0.0188985
0.0177194
0.0300474
0.0246476
0.0158073
0.0116329
0.0150444
0.0475957
0.0230517
0.0182407
0.0090233
0.0102552
0.0174374
0.0121522
0.00282761
0.0106179
0.0180922
0.0168722
0.0198243
0.0403908
0.00820477
0.0180629
0.0484867
0.0506663
0.0202432
0.0262589
0.0160219
0.01091
0.0122284
0.0161151
0.0206839
0.0369784
0.0152356
0.0172048
0.0161825
0.0230111
0.0288675
0.0176495
0.0192828
0.00915788
0.0139568
0.0234194
0.0144187
0.0556722
0.0248667
0.0463286
0.0254081
0.0590206
0.00649306
0.00394427
0.0168382
0.00413953
0.0404379
0.0122438
0.0261501
0.015728
0.0121498
0.0192374
0.0532049
0.0179566
0.00388277
0.0030179
0.0239337
0.00405049
0.0325862
0.0230019
0.00294557
0.00317653
0.0211854
0.0349915
0.0343662
0.0160803
0.0448038
0.0186188
0.00346715
0.0125735
0.00423161
0.0167393
0.0142173
0.0284076
0.0125873
0.0243277
0.00992
0.00880999
0.0103175
0.0192348
0.0116491
0.0224139
0.0165141
0.023326
0.0188623
0.0169463
0.00879791
0.0419808
0.0173178
0.0340952
0.016756
0.0398957
0.0102707
0.0566462
0.0255493
0.0162526
0.0122055
0.0144256
0.00383598
0.0104375
0.0106271
0.0156002
0.0247366
0.00158379
0.0490127
0.037511
0.0103743
0.0255578
0.0108877
0.0393076
0.0089592
0.00927873
0.0602964
0.0248574
0.0579256
0.0446804
0.0028652
0.0176001
0.0111926
0.0149109
0.0356327
0.0116144
0.0149521
0.0148166
0.021589
0.0145026
0.00618086
0.0214633
0.00121042
0.0380112
0.0402085
0.0205461
0.0414173
0.0224433
0.0282636
0.013456
0.0271014
0.017133
0.03425
0.0140724
0.0190835
0.0177899
0.0157848
0.0394871
0.0217348
0.045547
0.00368289
0.015524
0.039441
0.0153083
0.0154885
0.0285286
0.0184857
0.00761941
0.0369936
0.012331
0.010966
0.0334475
0.0278027
0.0107359
0.0251685
0.00831075
0.0290773
0.0174444
0.0109513
0.00712751
0.0458196
0.0318099
0.0274152
0.0262602
0.0195005
0.0231078
0.00987538
0.0402337
0.0509049
0.0142126
0.0306738
0.00288924
0.0231255
0.0363976
0.014986
0.0123949
0.0504709
0.0405145
0.0335228
0.00900746
0.0391827
0.0367258
0.0181651
0.0225181
0.019101
0.0264847
0.0165207
0.0187216
0.0508172
0.018112
0.0252359
0.0322722
0.0160886
0.0202477
0.0334081
0.0059123
0.0366755
0.0348934
0.019943
0.0126712
0.00821772
0.0227612
0.00509265
0.00383598
0.00686935
0.0243974
0.0453805
0.0270642
0.0481798
0.0157663
0.0225369
0.0497183
0.01115
0.0258563
0.0182192
0.0108777
0.040031
0.034064
0.0133194
0.0183266
0.0193514
0.0356098
0.0125398
0.0258273
0.0251215
0.0188247
0.0188494
0.0198749
0.0121002
0.0232882
0.0212645
0.0194795
0.0286707
0.0229368
0.0100794
0.0463321
0.0393979
0.0227402
0.0347095
0.0292981
0.0140521
0.0170541
0.022198
0.0464204
0.0258156
0.0265031
0.0108153
0.0425903
0.0243486
0.013236
0.0448426
0.0426759
0.0329499
0.00488322
0.0387433
0.016018
0.0291691
0.00931383
0.00695808
0.00692967
0.0162357
0.0331282
0.00653976
0.0170592
0.0192116
0.00642087
0.0134564
0.0258399
0.014058
0.0354106
0.015869
0.0152353
0.00779646
0.0207253
0.00718075
0.0130689
0.00992086
0.0130612
0.0161125
0.0214898
0.0256265
0.021917
0.0134293
0.0109838
0.016085
0.0146921
0.00657024
0.019822
0.0203208
0.00412548
0.0331554
0.0288208
0.0165287
0.00292471
0.01571
0.00484597
0.0197299
0.0171801
0.0147952
0.0227818
0.0396465
0.0325856
0.0186579
0.00386629
0.00860481
0.00851435
0.0594549
4.75957e-05
0.0496541
0.025594
0.0244691
0.0400081
0.0218008
0.0295343
0.0479842
0.0212797
0.0230107
0.0851345
0.015979
0.017989
0.0151459
0.0127207
0.112517
0.0133313
0.0318229
0.0465002
0.0300787
0.0220914
0.0255498
0.0297698
0.0477906
0.0043878
0.00846945
0.0348113
0.0141481
0.0243956
0.0180637
0.00553379
0.0206591
0.0155037
0.0209885
0.0173137
0.0370675
0.0171922
0.0430021
0.00571268
0.0320796
0.0402992
0.0184911
0.0288991
0.0162871
0.0431162
0.058406
0.028729
0.00357296
0.00956163
0.00977838
0.0110899
0.0138218
0.0190439
0.0572138
0.0152205
0.00252889
0.0599178
0.0169087
0.021693
0.0286758
0.0394786
0.00956186
0.038053
0.0395067
0.0109496
0.00417344
0.0248095
0.0325096
0.0507994
0.0478792
0.0099131
0.0514519
0.0166576
0.0446359
0.0190103
0.0248188
0.0402689
0.0303734
0.0538617
0.0427758
0.0173074
0.0467237
0.0155265
0.0156323
0.015992
0.109407
0.0210816
0.0434077
0.0237611
0.0482677
0.0462072
0.0183428
0.0236939
0.0343891
0.0177685
0.0238243
0.0443565
0.0296039
0.019802
0.0245423
0.0216118
0.0266731
0.0590534
0.0379257
0.012163
0.0179917
0.0406539
0.0271784
0.0552802
0.0221503
0.026795
0.00414381
0.0200835
0.0157021
0.0135288
0.0142554
0.0175481
0.0603159
0.0180005
0.0415973
0.0158916
0.0170518
0.00928995
0.0181791
0.0173714
0.0241541
0.0178081
0.0253188
0.0176377
0.023023
0.0129678
0.0223286
0.0359624
0.0352978
0.0242038
0.018476
0.0191692
0.0131227
0.0432781
0.018138
0.0165727
0.018194
0.0172379
0.0469797
0.0115713
0.0155096
0.0182357
0.018435
0.0455352
0.00332165
0.00303913
0.0290293
0.00475657
0.014127
0.033503
0.0249328
0.0028045
0.0103711
0.0125625
0.0431303
0.0216632
0.0194132
0.0599311
0.0169296
0.03677
0.0157856
0.0390568
0.0101237
0.0215974
0.0179369
0.0186248
0.0155337
0.00464661
0.00540134
0.0605133
0.0315238
0.0176406
0.00705666
0.0294301
0.00871072
0.00680012
0.00442304
0.0173808
0.0104215
0.0150776
0.02727
0.00977519
0.00721259
0.0184504
0.0041903
0.0177652
0.0162525
0.024703
0.00341321
0.0474207
0.00952959
0.00517325
0.0239701
0.0189852
0.00982462
0.0404854
0.0261571
0.0210457
0.0185516
0.00454089
0.0115491
0.0161238
0.0584413
0.0517018
0.0134314
0.0294363
0.00350247
0.0196806
0.029117
0.0483774
0.0448958
0.0122181
0.0392643
0.0166485
0.0147725
0.0201816
0.0249829
0.019043
0.0104228
0.042138
0.0320752
0.0180462
0.0118743
0.0437758
0.0372847
0.049932
0.0227638
0.00392462
0.00429488
0.029622
0.0149215
0.0147874
0.0554658
0.0101655
0.0270391
0.0124089
0.0367378
0.0200731
0.0496322
0.0287536
0.0463582
0.0178591
0.0126355
0.0187345
0.0471647
0.00750655
0.0179306
0.00817365
0.0248585
0.0133989
0.0202128
0.0115487
0.0220842
0.055688
0.0382348
0.00491902
0.0116845
0.0447834
0.00479162
0.0216239
0.00285276
0.0320769
0.0352804
0.0490454
0.00237036
0.0184007
0.00932606
0.0194465
0.0285214
0.0247147
0.0164371
0.0102814
0.0279914
0.0317891
0.025713
0.0608824
0.00555221
0.02589
0.0546888
0.0573389
0.0297661
0.0116691
0.0277976
0.00598761
0.0227255
0.00718537
0.0179791
0.00283449
0.0194471
0.0256381
0.0257998
0.0116977
0.0215536
0.0104723
0.0472955
0.0391607
0.0040647
0.0610644
0.0670235
0.00342009
0.0368117
0.0166418
0.0205108
0.0145094
0.0639884
0.0154368
0.0191694
0.0490921
0.0234804
0.0216097
0.0208614
0.0405321
0.0058365
0.0187192
0.0198446
0.021321
0.0198802
0.0249175
0.00817228
0.0136947
0.0206507
0.0184316
0.0070481
0.0676383
0.0413969
0.0414228
0.0321659
0.0292063
0.0226635
0.0289222
0.03327
0.0182486
0.021241
0.0184948
0.0278932
0.0165669
0.0213898
0.0163285
0.00440972
0.0197552
0.0203265
0.0229683
0.0184241
0.0237176
0.0260273
0.0178627
0.0470989
0.0247772
0.0172414
0.0242916
0.0284847
0.0214661
0.0531879
0.0235828
0.0429204
0.0415862
0.0340093
0.0164916
0.0281127
0.0130372
0.0280053
0.0102555
0.00935451
0.00957956
0.064942
0.0012277
0.0187774
0.00312829
0.0354614
0.0173728
0.00608847
0.0154124
0.0674286
0.0292231
0.0594241
0.0314215
0.0237225
0.0389113
0.0126626
0.0199264
0.0129764
0.0283197
0.0236905
0.0161047
0.0292186
0.0232409
0.0202688
0.0303737
0.0580636
0.0259625
0.0443896
0.0172941
0.0551815
0.00348599
0.0312105
0.0233487
0.0346824
0.0486712
0.0195996
0.0328209
0.0139473
0.0155518
0.0205083
0.0191473
0.0118604
0.0512652
0.0162552
0.0411534
0.0155785
0.0207819
0.0503808
0.0152829
0.0161774
0.0206483
0.0163644
0.018012
0.0168139
0.0198902
0.0175482
0.0170521
0.0348037
0.00407363
0.00859618
0.0032482
0.00470652
0.00291066
0.0415752
0.0116467
0.0185453
0.484421
0.0303379
0.0132793
0.034962
0.0286961
0.00890761
0.0177832
0.042369
0.0387621
0.01221
0.00430923
0.0160177
0.00847455
0.0341921
0.0227956
0.0194499
0.052248
0.0144615
0.0164198
0.01986
0.0173829
0.0244846
0.00428971
0.0176906
0.0201812
0.0226713
0.0390633
0.0208962
0.0363023
0.0443825
0.00203045
0.0156743
0.0209199
0.0372049
0.0181908
0.0459753
0.0196402
0.0246239
0.013873
0.0264499
0.03029
0.0203716
0.052463
0.0151459
0.0186121
0.0181494
0.0164667
0.015102
0.0195415
0.0194069
0.0320564
0.0263771
0.00303048
0.0189996
0.0291972
0.0255472
0.0573293
0.011136
0.0114598
0.0181617
0.0564479
0.0475906
0.0299164
0.0317155
0.031799
0.016699
0.018045
0.0364007
0.0116161
0.017995
0.016915
0.0379081
0.0098319
0.0420957
0.0159212
0.0416797
0.0114372
0.0181874
0.0157279
0.0219922
0.0023634
0.0378396
0.0302875
0.0124804
0.0256981
0.0174702
0.0121528
0.0238531
0.017824
0.00457704
0.0227722
0.0155974
0.0216557
0.00773106
0.0209537
0.0177276
0.00248647
0.0599071
0.0103417
0.00581507
0.00545153
0.0105596
0.0321136
0.0314426
0.0118816
0.00928472
0.0208352
0.0219885
0.0141801
0.0311214
0.0540358
0.00245339
0.0219654
0.0249139
0.0316885
0.0198025
0.0190579
0.0570161
0.0209698
0.0258102
0.0285871
0.0460665
0.0358718
0.0112676
0.020505
0.030914
0.00332473
0.00989717
0.0163605
0.0420303
0.0255103
0.0608618
0.0284228
0.0173408
0.0180631
0.0196058
0.0169917
0.0419078
0.045521
0.0185219
0.0160423
0.0320802
0.0142584
0.0198317
0.0177436
0.0280286
0.0178564
0.0221686
0.0117377
0.0110277
0.0552388
0.023606
0.0197046
0.0601676
0.0242552
0.0295347
0.0267138
0.0198527
0.0529647
0.0474361
0.056825
0.0185529
0.017034
0.0179054
0.0199524
0.0455412
0.0235405
0.0183007
0.01847
0.0325381
0.0210966
0.0308266
0.0535475
0.0145677
0.01586
0.020002
0.0173855
0.0226922
0.00979519
0.00823771
0.0127231
0.017089
0.0175924
0.0615497
0.0346603
0.0218394
0.0284743
0.0149278
0.0238383
0.0162926
0.0243033
0.0367191
0.00633787
0.0136303
0.0265422
0.0327373
0.0497866
0.0162811
0.0443139
0.0578692
0.0504606
0.0378556
0.0295091
0.0235981
0.00362066
0.0360485
0.0441331
0.01989
0.0176842
0.00932726
0.0167082
0.0191437
0.016402
0.0171715
0.0416826
0.0179032
0.0223475
0.0557195
0.00763215
0.0225677
0.0281889
0.0137911
0.0287612
0.0167368
0.0237366
0.00411455
0.0470754
0.0518115
0.0194836
0.0293341