/*--------------------------------*- C++ -*----------------------------------*\
| =========                 |                                                 |
| \\      /  F ield         | OpenFOAM: The Open Source CFD Toolbox           |
|  \\    /   O peration     | Version:  2312                                  |
|   \\  /    A nd           | Website:  www.openfoam.com                      |
|    \\/     M anipulation  |                                                 |
\*---------------------------------------------------------------------------*/
FoamFile
{
    version     2.0;
    format      ascii;
    arch        "LSB;label=32;scalar=64";
    class       volScalarField;
    location    "2/shell";
    object      k;
}
// * * * * * * * * * * * * * * * * * * * * * * * * * * * * * * * * * * * * * //

dimensions      [0 2 -2 0 0 0 0];

internalField   nonuniform List<scalar> 
7335
(
0.013733
0.0313381
0.0419769
0.0045789
0.0401907
0.0675635
0.0128968
0.0374135
0.0343558
0.0422847
0.0279549
0.0043943
0.0410957
0.00900129
0.0094902
0.0356
0.00731776
0.0432136
0.0376117
0.0322387
0.0316121
0.0261427
0.00334555
0.0319274
0.0410054
0.0384788
0.0191841
0.00272103
0.0405738
0.0625771
0.00272601
0.0492707
0.0527573
0.0302489
0.028529
0.0375718
0.0343898
0.037191
0.00740222
0.0282022
0.0189464
0.0333183
0.0381925
0.0155348
0.0510824
0.0252972
0.0346294
0.0349114
0.0426347
0.0498144
0.00324354
0.039026
0.0518493
0.00870363
9.6177e-05
0.0182618
3.54607e-05
0.0309977
0.0133621
0.00977062
0.0125467
0.00857061
0.0117097
0.0332902
0.0257856
0.0349769
0.0165408
0.050252
0.00459115
0.00170402
0.0118645
0.0345813
0.00648573
0.0214925
0.0393707
0.029899
0.0556565
0.0280512
0.0310258
0.000479199
0.00465647
0.00451652
0.0121299
0.0266844
0.0235556
0.0279037
0.008005
0.000511867
0.00727444
0.043446
0.0045938
0.000405372
0.0283451
0.000286692
0.0333884
0.0210738
0.00176633
0.00165575
0.0161882
0.0272597
0.0208705
0.0199994
0.00390436
0.0325366
0.0129788
0.00351523
0.0416725
0.000428544
0.00815713
0.0408928
0.0154203
0.0241384
0.0329343
0.013596
0.0270872
0.0234241
0.018342
0.037393
8.86707e-05
0.0192147
0.0226321
0.00460156
0.00930928
0.0436999
0.00407488
0.00258197
0.0144858
0.00378634
0.00617703
0.0286595
0.0267577
0.0341347
0.036472
0.00599969
0.00660296
0.0161318
0.00376874
0.00517313
0.0223498
0.0304336
0.0302043
0.00415181
0.0217079
0.0251086
0.00793948
0.035997
0.0358464
0.031472
0.00101466
0.054863
0.019666
0.0223261
0.0308975
0.00651942
0.0370855
0.00499604
0.00899359
0.0287603
0.00399744
0.0313704
0.0242566
0.00438886
0.00429439
0.0363193
0.031372
0.0322678
0.0487652
0.0331823
0.0352662
0.0340129
0.0392855
0.029117
0.0309583
0.0256406
0.00338547
0.0163969
0.0301544
0.0416288
0.0373974
0.0291369
0.0420451
0.00823428
0.00633235
0.0328681
0.0170412
0.0285793
0.0130482
0.023097
0.0092571
0.00235363
0.0103483
0.00804087
0.00227111
0.0287569
0.0140751
0.0154391
0.038712
0.025775
0.0383675
0.00624471
0.0222978
0.0270132
0.0300713
0.0387407
0.00641393
0.0372666
0.00282213
0.047435
0.0210727
0.00106712
0.0222595
0.0273398
0.0292794
0.0383786
0.0276156
0.0158261
0.000119026
0.0446568
0.0111249
0.00928327
0.0389738
0.000196514
0.0356183
0.0169385
0.0232833
0.00198538
0.000903035
0.064154
0.0222385
0.00914682
0.00760847
0.0208128
0.00614375
0.00666004
0.00250496
0.00443195
0.00455591
0.00359078
0.00451016
0.0139694
0.00449752
0.0286661
0.0285519
0.00154786
0.00535086
0.0286683
0.0371312
0.0295016
0.0431765
0.000737699
0.0334838
0.00268669
0.00410364
0.00302889
0.028254
0.0119507
0.0464705
0.0564381
0.0283591
0.0265304
0.00143745
0.00194279
0.0599016
0.00185367
0.00505235
0.045016
0.00384228
0.00818938
0.0536225
0.0421598
0.00679756
0.0543878
0.0442494
0.00278164
0.0184139
0.0533311
0.0281452
0.0453722
0.00283268
0.0530773
0.00315167
0.00403754
0.0207372
0.00556458
0.0272062
0.00462831
0.038487
0.0256824
0.00982045
0.000971912
0.00311286
0.0567081
0.00748591
0.00662886
0.00705108
0.0375912
0.00527599
0.0227681
0.0251988
0.00242773
0.0263296
0.00148769
0.00957903
0.00113664
0.0450559
0.0065229
0.0451586
0.00600871
0.000304049
0.0114913
0.0396252
0.0101516
0.0325695
0.0105358
0.0296479
0.00832388
0.0283898
0.00587217
0.00394329
0.00118975
0.0373766
0.0163755
0.0324296
0.0283469
0.0133491
0.0450468
0.0156265
0.0313341
0.0365535
0.00331314
0.00315918
0.0348917
0.0129785
0.0213392
0.00193196
0.0299098
0.00129837
0.0386447
0.0368352
0.00243978
0.00730958
0.00254154
0.00769607
0.00277595
0.0197759
0.00319487
0.00482591
0.0375095
0.0389837
0.016685
0.00614455
0.0334757
0.035555
0.0347402
0.0206244
0.00793442
0.00601572
0.0025371
0.00167877
0.017609
0.0329349
0.0293846
0.00622954
0.0339558
0.0519561
0.00609156
0.0330555
0.0225937
0.00258633
0.0332117
0.00278909
0.0680942
0.0358927
0.00529265
0.0287036
0.0483851
0.0660088
0.0303147
0.00290821
0.0187977
0.0222637
0.0064021
0.00412662
0.00769262
0.0262893
0.00427135
0.00611736
0.0196665
0.00205696
0.0090145
0.0180114
0.0217432
0.0210227
0.0246233
0.0246157
0.00552708
0.0287647
1.22326e-05
0.00588994
0.0283087
0.0352186
0.0382203
0.0221207
0.0261218
0.00528326
0.00433819
0.0298333
0.0230379
0.0332031
0.0306722
0.00850286
0.0325125
0.0252134
0.0232505
0.0263618
0.00169235
0.0296281
0.0012444
0.0244413
0.00146863
0.00492844
0.0393578
0.0164367
0.0364724
0.0399477
0.0331415
0.0275252
0.00439911
0.0155005
0.0370349
0.000247874
0.00134417
0.0356827
0.0496571
0.00804835
0.0293934
0.0309649
0.0339034
0.00741527
0.00293286
0.0362618
0.00945985
0.0334861
0.0387515
0.000998379
0.00949345
0.0328587
0.0456283
0.0315669
0.029851
0.0502083
0.0220213
0.0522217
0.0334702
0.0344308
0.0235977
0.0228677
0.0473573
0.0556853
0.0356662
0.0659116
0.0217579
0.0227494
0.0570138
0.0355811
0.000633333
0.00594384
0.0594541
0.0761784
0.00778171
0.000318911
0.0344191
0.0334657
0.000368248
2.52464e-05
0.0240424
0.000218749
0.0146965
0.00615204
0.0050052
0.0187227
0.00863634
0.0254882
0.0380094
0.0047104
0.00559212
0.0277428
0.00896892
0.0220692
0.0285559
0.0150779
0.00688168
0.000744603
0.000660658
0.0319715
0.0169757
0.0199047
0.0110127
0.0299519
0.0273268
0.0177342
0.0334016
0.0266087
0.00930982
0.0199801
0.0414168
0.0212519
0.00368435
0.0147166
0.0171644
0.0370736
0.0267872
0.00292769
0.0256626
0.0178477
0.00328731
0.0187442
0.0452479
0.0527054
0.00304306
0.00329601
0.0317306
0.025051
0.0240789
0.0232067
0.0250684
0.0418426
0.0204367
0.0384131
0.0365089
0.000608323
0.03222
0.0384998
0.0323877
0.0206622
0.00501052
0.0408044
0.0493595
0.0349756
0.0211685
0.00552739
0.0493177
0.0423344
0.0115627
0.0360936
0.0641358
0.0374237
0.0353857
0.0323941
0.0212607
0.0193746
0.0391407
0.0327725
0.0483075
0.0250699
0.0118012
0.051154
0.0681489
2.76832e-05
0.00215033
0.00780338
0.00626767
0.00266001
0.00735912
0.0196951
0.0300901
0.0939026
0.0135268
0.0218032
0.0328554
0.00360027
0.0183305
0.0124415
0.0208548
0.00416936
0.0195524
0.00690231
0.0300168
0.00939066
0.0098656
0.0321795
0.0220095
0.00817274
0.0373775
0.0437602
0.0152473
0.0360251
0.00426707
0.00324723
0.0162006
0.00219697
0.00363669
0.0228614
0.027756
0.00679245
0.0263277
0.0076736
0.0272537
0.0178853
0.0265296
0.0425025
0.0321894
0.00085045
0.0358758
0.0260541
0.0273005
0.0302819
0.0201901
0.0278517
0.0274703
0.0159886
0.0276493
0.00278088
0.0332055
0.0367897
0.036272
0.0171904
0.00266711
0.0144999
0.0220448
0.0307292
0.0074564
0.00919326
0.00668065
0.00116194
0.00498337
0.00967156
0.0334847
0.0424429
0.0198145
0.00721434
0.0335823
0.0241268
0.0363645
0.00542502
0.0296117
0.0204889
0.029335
0.0401211
0.0671078
0.000930834
0.0875431
0.030256
0.000794953
0.0114157
0.0363357
0.0376749
0.00486454
0.0140301
0.0333327
0.0335076
0.0376479
0.015265
0.00591879
0.0408723
0.011331
0.000750106
0.0412313
0.000869741
8.93808e-05
0.0143213
0.00579895
0.0293666
0.0203352
0.0069407
0.00773332
0.00537709
0.0104696
0.089722
0.0360624
0.0386991
0.00942112
0.0103526
0.0367346
0.00537854
0.0285646
0.00613633
0.0163722
0.00588996
0.00342938
0.0344782
0.00419574
0.00536032
0.00152605
0.00391043
0.0133413
0.00180209
0.00169249
0.00622618
0.0125875
0.0322003
0.00208436
0.0445628
0.00435726
0.0268437
0.0255093
0.0270023
0.0162829
0.0556164
0.0301061
0.0275566
0.042501
0.0541835
7.28217e-05
0.030508
0.00593429
0.034789
0.00106556
0.0296147
5.39834e-05
0.00203393
0.00999866
0.000906371
0.0211157
0.0197382
0.0050796
0.0248615
0.00205139
0.00724601
0.00220965
0.00165764
0.00232145
0.0293194
0.00156126
0.038975
0.0159733
0.021451
0.0211155
0.00449639
0.00271443
0.0299606
0.0305079
0.0356858
0.0207329
0.00678144
0.0202036
0.0251433
0.0522708
0.038943
0.0144979
0.0258544
0.0286131
0.0304973
0.0185895
0.0085262
0.0690408
0.0142705
0.0200759
0.0181399
0.00765962
0.0251811
0.0214264
0.0293582
0.0320037
0.0351062
0.0421097
0.0140838
0.00780201
0.0420753
0.00635965
0.025982
0.0070218
0.007918
0.0165256
0.0242375
0.00762668
0.00754117
0.0240012
0.0132946
0.021088
0.0240761
0.0109711
0.0383915
0.0215243
0.00433536
0.0225972
0.0112237
0.0201148
0.00331531
0.0304688
0.0286388
0.00467962
0.0336053
0.0214181
0.00492866
0.0107638
0.0046488
0.034746
0.0597487
0.0335288
0.0369332
0.0306343
0.0207027
0.00399434
0.0341159
0.0495466
0.0379985
0.00216679
0.015232
0.0472089
0.00624595
0.0306469
0.0291274
0.000781333
0.0820845
0.0129656
0.0429137
0.00690025
0.00414159
0.0368531
0.0193904
0.0374021
0.00188636
0.0320333
0.0547056
0.0282587
0.0211884
0.0287044
0.0189676
0.00571452
0.0270167
0.020488
0.043573
0.0481875
0.034871
0.0278988
0.030357
0.0201841
0.000886034
0.00482663
0.021025
0.00624805
0.00417978
0.0179034
0.0102347
0.0386667
0.0269023
0.0442375
0.0540102
0.0112259
0.0412967
0.01721
0.0341618
0.0287386
0.00945573
0.0167489
0.0463352
0.039532
0.0107046
0.0489232
0.00652501
0.0386545
0.00428703
0.0325912
0.0332196
0.0481475
0.0127667
0.0443795
0.0238148
0.0373428
0.00235212
0.0351824
0.0350797
0.0335613
0.0231081
0.00155812
0.0220481
0.017021
0.0426439
0.0231118
0.0324097
0.0313315
0.0326843
0.0334746
0.000955574
0.0226858
0.0357519
0.0257018
0.0256026
0.0356456
0.000715657
0.00131189
0.0248736
0.00785488
0.0346531
0.0341348
0.0325655
0.0341161
0.0307795
0.0244318
0.0385829
0.0334303
0.00513577
0.0362134
0.0264284
0.00844326
0.0361085
0.0382416
0.0365826
0.0301837
0.0375052
0.0294891
0.0298724
0.0379869
0.00266146
0.000344267
0.0311259
0.0276426
0.0248471
0.03756
0.0191576
0.0241127
0.0305386
0.00212568
0.0260078
0.0219848
0.000528722
0.00255767
0.00209907
1.05357e-05
0.0287021
0.0280052
0.0374192
0.0380308
0.00362592
0.00239916
0.0375485
0.0368651
0.0358162
0.0243175
0.0452327
0.0181655
0.0323491
0.0283291
0.0264173
0.0285295
0.0687895
0.0230014
0.0338867
0.0224274
0.0267346
0.0271637
0.0547236
0.0282433
0.044241
0.0481417
0.0446389
0.0265322
0.000728092
0.0481152
0.0494882
0.0150498
0.048638
0.0449193
3.5309e-05
3.28529e-05
0.0463794
0.0365668
0.0479916
0.0486548
0.0228457
0.0248726
0.0322866
0.0216469
0.021318
0.0195057
0.0310802
0.00307654
0.00227874
0.0309448
0.0273828
0.0284058
0.0223723
0.036978
0.00987478
0.0373811
0.0336669
0.00487021
0.00484517
0.00238825
0.0391889
0.0041786
0.0041841
0.0557749
0.00668846
0.0396531
0.0304954
0.00919178
0.00456493
0.018008
0.015343
0.0312578
0.0212011
0.0219089
0.0505531
0.00146674
0.0391107
0.0498351
0.0323999
0.00782786
0.00246606
0.0170199
0.0475767
0.0499
0.000183429
0.000443494
0.00108909
0.00384159
0.0276622
0.0256915
0.00419419
0.0389651
0.0200406
0.042469
0.0406576
0.0377303
0.0161499
0.029307
0.0126873
0.016268
0.0291862
0.0295668
0.0343477
0.03651
0.0319041
0.0146961
0.0415777
0.032801
0.0150717
0.0162948
0.00605811
0.0194808
0.0281346
0.0351879
0.010776
0.00652255
0.04637
0.0326109
0.00277734
0.0323646
0.0074613
0.0162255
0.00743779
0.00313655
0.0358853
0.000970089
0.0114646
0.0220981
0.00293139
0.00142508
0.000999392
0.0113669
0.000769744
0.011
0.00536415
0.00458355
0.00307346
0.00481833
0.00239471
0.0181582
0.00137442
0.0318519
0.00855621
0.00249665
0.0137874
0.00544347
0.0056168
0.00438625
0.0100648
0.027474
0.000616093
0.00133355
0.0269172
0.00100467
0.0401123
0.0472756
0.010147
0.0235195
0.0323658
0.00948809
0.0407543
0.0137501
0.0298365
0.00502479
0.0406493
0.0487555
0.00453116
0.00491964
0.0102674
0.00746442
0.0323189
0.0203796
0.0126653
0.0248261
0.0347148
0.011607
0.0258551
0.0147643
0.0292021
0.00376486
0.0138607
0.0486877
0.0159268
0.0355277
0.0143317
0.0301118
0.00414655
0.00538176
0.0268667
0.015985
0.0168712
0.0215089
0.0257975
0.0200323
0.0160012
0.0207787
0.0224626
0.0122382
0.0294995
0.0202917
0.0150056
0.0205008
0.0132983
0.053217
0.019277
0.00629953
0.0446699
0.00761417
0.0027801
0.00969841
0.0314708
0.0190292
0.010594
0.00872898
0.0376447
0.0151206
0.0279147
0.0784386
0.00406609
0.0151504
0.0385623
0.0250964
0.00469839
0.000923575
0.013904
0.0256136
0.0256409
0.0389429
0.0100829
0.00362209
0.0339377
0.0335268
0.0244861
0.0334842
0.0273802
0.0327585
0.0122752
0.0236066
0.0379431
0.0163593
0.0323098
0.0163866
0.00882057
0.0133969
0.0155386
0.0428882
0.000791076
0.00280333
0.00884885
0.0111452
0.0182608
0.0446572
0.000372526
0.0140775
0.0102626
0.00423522
0.00454337
0.00384092
0.0078453
0.0672966
0.0100094
0.00736297
0.0036554
0.0141341
0.0474111
0.0232662
0.0227217
0.0187043
0.00928579
0.0221566
0.0365157
0.00122252
0.0111317
0.0246825
0.00460571
0.015331
0.00894676
0.00620849
0.00418527
0.0549697
0.00362659
0.00226027
0.0352174
0.0177926
0.0339363
0.0374504
0.00190864
0.0424325
0.0270294
0.00191736
0.00488426
0.00310632
0.00438308
0.00131577
0.00755975
0.00473062
0.0257256
0.0334389
0.0316557
0.00490804
0.0328536
0.00706154
0.0156377
0.0154308
0.0290833
0.000706003
0.00958023
0.0271304
0.00415866
0.00596683
0.00397873
0.00254057
0.00993697
0.0515579
0.0481234
0.0492727
0.00377944
0.00268621
0.00318695
0.00307468
0.0213729
0.00371361
0.00111891
0.00293225
0.0531772
0.0160359
0.0279963
0.0430395
0.000446097
0.0575364
0.023343
0.0132196
0.00300205
0.0289783
0.0288492
0.0297052
0.00144802
0.021674
0.000857313
0.0202623
0.0195848
0.0123445
0.0555728
0.00401805
0.0083647
0.0214884
0.0399433
0.0167927
0.0173112
0.00343403
0.0382612
0.0224957
0.0222106
0.00748102
0.00321211
0.0387471
0.0362065
0.0220458
0.0238219
0.00431169
0.00920543
0.0280497
0.0341721
0.0225499
0.0348301
0.0297703
0.020631
0.0214972
0.0348209
0.0285895
0.0312727
0.0225983
0.0213843
0.0353444
0.0520909
0.0248537
0.00964555
0.0396555
0.0142778
0.0261882
0.0237688
0.0500516
0.024631
0.0344185
0.0456597
0.028752
0.0326139
0.0458277
0.0313313
0.00129889
0.0240436
0.00439378
0.0314341
0.032317
0.0335633
0.01916
0.0264765
0.0330772
0.0233382
0.0260329
0.0363194
0.0246968
0.00770813
0.0243502
0.0355851
0.0765213
0.0191878
0.00107773
0.0235235
0.029879
0.0299062
0.0192497
0.0251697
0.00138675
0.00497992
0.00464497
0.080616
0.0326191
0.000494316
0.0285632
0.0030716
0.0154201
0.0314843
0.0213278
0.0167364
0.0521437
0.0249063
0.0276749
0.00191698
0.0573711
0.00937269
0.0390437
0.00718979
0.00228684
0.00856057
0.0306653
0.0127098
0.0288708
0.0508185
0.0166325
0.0289277
0.00976652
0.0167837
0.0327463
0.0101879
0.00797009
0.0132045
0.0107524
0.034194
0.0300949
0.0102064
0.0115273
0.0128668
0.0176805
0.0239309
0.0265091
0.00855369
0.0197331
0.0198839
0.0255016
0.0245086
0.0309484
0.0382699
0.023628
0.0233551
0.0271639
0.00974141
0.0134383
0.0164977
0.0127351
0.00490664
0.0249219
0.000837468
0.0056765
0.0160818
0.0220959
0.0251527
0.016768
0.0162948
0.028565
0.00355985
0.0277281
0.00993517
0.0169758
0.013316
0.0460194
0.0289437
0.0135482
0.0083463
0.024088
0.0160574
0.0156919
0.0179688
0.0358389
0.0378727
0.00743469
0.0322668
0.00507932
0.032292
0.0432138
0.0238372
0.0341092
0.0223661
0.0140122
0.00692114
0.005233
0.0167688
0.0256477
0.0335717
0.0152011
0.048717
0.00655274
0.0133069
0.0213637
0.0107125
0.00640447
0.0209426
0.0272657
0.0178555
0.00734605
0.0241834
0.0071972
0.0298818
0.0205586
0.0209694
0.0385919
0.0266184
0.000353043
0.0209486
0.000375727
0.0461303
0.0205261
0.000297673
0.0320062
0.0153049
0.02272
0.0453905
0.000332341
2.73409e-05
0.0331801
0.0322085
0.00903859
0.00239812
0.00765515
0.00761782
0.00364029
0.00230005
0.0226347
0.00730094
0.0489029
0.0613941
3.35399e-05
0.035889
0.0424281
0.044703
0.030616
0.0170927
0.0192257
0.00611025
0.0241522
0.00437158
0.00182974
0.0435983
0.0359857
0.0287644
0.0327769
0.0438139
0.0300915
0.0117389
0.0102038
0.0456422
0.00728393
0.051637
0.00381146
0.0210626
0.0242461
0.000298629
9.89787e-05
0.00290108
0.028159
0.055932
0.0302037
0.00287643
0.0210204
0.00962105
0.0299838
0.0348805
0.0124467
0.0222722
0.0400229
0.0199249
0.024021
0.00509202
0.0106323
0.00403475
0.0069188
0.0235204
0.00602298
0.0334924
0.010409
0.0290018
0.0570379
0.0107171
0.0143859
0.010957
0.0273078
0.0232311
0.0405928
0.0260042
0.0118227
0.00310525
0.00791229
0.0335815
0.0121261
0.0367006
0.0258285
0.000309701
0.00487567
0.0232071
0.00667282
0.028546
0.0234371
0.0352657
0.00285409
0.0372685
0.0336526
0.0296915
0.00296758
0.00101804
0.00100388
0.0387184
0.0386226
0.00465905
0.0346466
0.000231311
0.00249469
0.00194006
0.0160489
0.0629313
0.000988488
0.0336914
0.00401485
0.0171775
0.0378607
0.0283072
0.0559573
0.00374496
0.00683449
0.0129146
0.000434749
0.0410492
0.0279766
0.0432024
0.0107405
0.0327308
0.0528289
0.00735396
0.0108581
0.00249961
0.0154261
0.0373924
0.0494295
0.024643
0.0299781
0.0266146
0.0305576
0.0278178
0.00636637
0.00810306
0.0292183
0.00991093
0.0100056
0.00281222
0.0502598
0.042408
0.0284025
0.0104571
0.0154842
0.0270645
0.0504993
0.0460813
0.0324002
0.0254518
0.00933161
0.00276535
0.0358797
0.0342673
0.0513128
0.00513996
0.00583433
0.0170807
0.0305184
0.0165238
0.0244174
0.000237489
0.0191894
0.0288818
0.0375348
0.0187881
2.07755e-05
0.00860652
0.0272959
0.000448883
0.0133642
0.00296473
0.0230528
0.00623151
0.0108205
0.0267005
0.000876795
0.0411953
0.00478334
0.0262998
0.0129301
0.00378517
0.0190193
0.019947
0.0228292
0.0178785
0.0068049
0.00445485
0.0296875
0.00239602
0.0396707
0.0149676
0.0013143
0.0161812
0.0196402
0.000423409
0.000294068
0.017259
0.00207883
0.00166042
0.0377695
0.00284285
0.0344184
0.0278403
0.0434445
0.0258331
0.0216986
0.0397418
0.000840262
0.0455803
0.00548304
0.0491466
0.00434175
0.0499791
0.0195235
0.00187275
0.0152239
0.00688024
0.0155123
0.0305171
0.0157406
0.0131747
0.0118646
0.000728682
0.0379432
0.000781224
0.0340067
0.015619
0.0304338
0.00571954
0.0224727
0.0391134
0.0207478
0.0472842
0.0351076
0.00372723
0.00398222
0.0176167
0.0350763
0.00385202
0.00390816
0.0377822
0.00417547
0.000946172
0.0194446
0.0405709
0.000860509
0.0103395
0.00832378
0.0558394
0.0046277
0.0810016
0.0898268
0.0336035
0.0420785
0.0155045
0.000476034
0.00878537
0.0312216
0.0361167
0.00179786
0.058578
0.0285322
0.0303947
0.0231774
0.0235947
0.000321228
0.00999558
0.00859213
0.0294254
0.00787206
0.00609623
0.00197774
0.000947998
0.0221368
0.0287454
0.0179587
0.00954056
0.00237356
0.0337145
0.0207364
0.0213631
0.0209558
0.00779596
0.00190223
0.0177416
0.00162466
0.0022881
0.0578697
0.0324486
0.000777337
0.0542496
0.0296855
0.0055299
0.00223701
0.0534585
0.006042
0.0353508
0.0310355
0.0201629
0.0256373
0.0273124
0.0479207
0.00320063
0.0161486
0.0450607
0.0365968
0.036938
0.0108894
0.0161576
0.0443934
0.00870528
0.00505072
0.0210595
0.0278596
0.00668049
0.00419118
0.0227633
0.0045995
0.00279904
0.0338833
0.0366199
0.00683356
0.0377208
0.00511089
0.0309039
0.00267613
0.0302578
0.0281386
0.0344407
0.00623953
0.0457095
0.0381247
0.0123433
0.0203547
0.0425162
0.0320474
0.0125218
0.00729352
0.0233486
0.00705087
0.00202894
0.00444748
0.0582159
0.0637783
0.00122193
0.00464308
0.0012348
0.0514613
0.0458289
0.0172742
0.0305715
0.00884454
0.0123532
0.0278264
0.00768879
0.0086944
0.0441867
0.0101239
0.0264035
0.0299768
0.00309551
0.000777749
0.00385245
0.0154232
0.00722286
0.0237454
0.00228134
0.012504
0.0027558
0.0213199
0.00319999
0.0233286
0.0180963
0.00071419
0.0364586
0.0128023
0.00229664
0.00278712
0.010204
0.0382854
0.0393529
0.00217705
0.0270846
0.0422332
0.00437909
0.043606
0.0018471
0.00882025
0.00848328
0.000240524
0.0489249
0.0238236
0.00954389
0.000261261
0.0588204
0.027475
0.0226453
0.0075553
0.0366288
0.0238294
0.0410224
0.00168832
0.0305178
0.000176613
0.000199686
0.0486876
0.00918916
0.0133338
0.00462519
0.0406348
0.0257649
7.1392e-05
0.00694522
0.000328439
0.0102808
0.0193981
0.000411432
0.00485593
0.00193042
0.0232283
0.0260092
0.0103498
0.00799244
0.0111037
0.0431562
0.00372625
0.00438948
0.0130087
0.0111547
0.0341005
0.00507874
0.00207995
0.016064
0.0107259
0.0124247
0.00224731
0.0480478
0.00502021
0.020279
7.79374e-05
0.0366325
0.0337358
0.0146226
0.00414876
0.0311242
0.00124962
0.00733119
0.0267251
0.00327676
0.0239758
0.023859
0.00682517
0.0203874
0.0268335
0.0259589
0.00440993
0.0202451
0.00711978
0.00471463
0.0166289
0.0106732
0.0075686
0.0227734
0.00181772
0.00644477
0.0318673
0.00670485
0.0243177
0.00126821
0.00161354
0.0356641
0.0133585
0.000200845
0.0037428
0.0400938
0.00415127
0.0476119
0.0558173
0.00105509
0.0199248
0.0290219
0.0307869
0.0288006
0.00877189
0.0140399
0.00530272
0.00377345
0.0249563
0.0283687
0.0183142
0.0261829
0.00789205
0.00937835
0.00633215
0.0108263
0.0243927
0.0217285
0.00385882
0.0072981
0.0167785
0.00747438
0.0325022
0.00729516
0.0252072
0.0079538
0.0458563
0.054068
0.0003231
0.0279405
0.000304322
0.0202687
0.00609629
0.0080768
0.00374742
0.00197846
0.0206471
0.0348971
0.00863722
0.0124761
0.0111067
0.0180809
0.00164638
0.0208047
0.028233
0.0116478
0.00266058
0.00594704
0.016002
0.0208279
0.0291596
0.026431
0.022919
0.0014575
0.00223423
0.00428884
0.0278397
0.00638039
0.00921133
0.00217833
0.00739974
0.00563114
0.00335384
0.00573997
0.00487001
0.00189868
0.0203829
0.0171392
0.00735991
0.0281586
0.0107794
0.00116881
0.0203542
0.0261636
0.0135925
0.00339415
0.024594
0.00600918
0.0384374
0.0257553
0.00360952
0.00789449
0.0112095
0.0002557
0.0072352
0.00155991
0.0138893
0.032951
0.000173194
0.033658
0.0296928
0.00747316
0.0193038
0.0187314
0.0204064
0.020033
0.0157977
0.0425946
0.0111923
0.0394566
0.0593875
0.0068723
0.0253884
0.00184601
0.0197942
0.0625813
0.00178992
0.077495
0.0191066
0.00621294
0.012692
0.0201795
0.00556975
0.000461853
0.0177579
0.0189807
0.0138373
0.0366614
0.00666998
0.0106444
0.00253365
0.00965506
0.028582
0.0146417
0.0204272
0.0184988
0.0191788
0.0277204
0.0201347
0.00613422
0.0258112
0.0294518
0.00988592
0.0204083
0.00613195
0.0110738
0.010693
0.0209257
0.0670165
0.0186709
0.0137359
0.0046255
0.0135538
0.0491297
0.0137549
0.0313222
0.0113971
0.0112197
0.0233389
0.01333
0.000753968
0.0273999
0.0128984
0.0140832
0.0506086
0.00519544
0.0117747
0.0138789
0.0178866
0.0309159
0.00425538
0.0168805
0.00990097
0.0322208
0.0175289
0.0195757
0.00224459
0.0323259
0.0189188
0.0146517
0.0434557
0.0189386
0.0156612
0.00432385
0.0156421
0.0128143
0.0095005
0.0306891
0.0326081
0.0320906
0.0143711
0.00824048
0.0294481
0.00849772
0.00449742
0.0133521
0.000491245
0.0165868
0.0155887
0.004566
0.0135053
0.00093012
0.00729661
0.029053
0.00834197
0.000800956
0.00723684
0.0273863
0.0305685
0.0394989
0.00281436
0.0166867
0.0337055
0.00147963
0.0151084
0.0344388
0.00557765
0.0185567
0.012446
0.00244999
0.0239951
0.00477571
0.0148348
0.00827383
0.00882176
0.03803
0.00497782
0.0371936
0.00517926
0.00206561
0.025266
0.014836
0.0452138
0.0107792
0.0298873
0.0014917
0.0249252
0.0325354
0.0150008
0.0149002
0.0099146
0.017201
0.00386179
0.02919
0.029072
0.00848879
0.00886367
0.0161912
0.0225275
0.0184758
0.00813674
0.0248535
0.0238651
0.0140133
0.000457614
0.0277077
0.0148643
0.0111637
0.00411787
0.00065611
0.000758077
0.00289883
0.0134924
0.000604854
0.0226267
0.0314989
0.0191253
0.00264071
0.00718065
0.0387774
0.0154888
0.00308206
0.042006
0.0356986
0.0181217
0.00748717
0.00433306
0.0384571
0.00310996
0.00945151
0.00599417
0.0316273
0.015652
0.00247103
0.00250629
0.0341009
0.0443881
0.00375953
0.00455698
0.0240469
0.000290855
0.0155314
0.0115407
0.0235524
0.0116162
0.00254889
0.00038172
0.0335924
0.0357786
0.0130155
0.0279596
0.060754
0.0397648
0.00446157
0.00100275
0.0100683
0.00114285
0.0443761
1.65074e-05
0.0411998
0.0075711
0.0379411
0.016201
0.0353502
0.0113727
0.0241146
0.0666166
0.04213
0.0288516
0.057115
0.00429773
0.0198735
0.00996409
0.0286553
0.00235808
0.0424067
0.0295758
0.0121235
0.0306986
0.0085231
0.0112243
0.0293481
0.0193172
0.0187148
0.0156105
0.00281179
0.0353363
0.00449884
0.000545705
0.021119
0.0243936
0.00755801
0.00992912
0.0302915
0.0216179
0.022905
0.0112454
0.0124737
0.0493965
0.0088702
0.0108317
0.0321678
0.0271368
0.0398274
0.010521
0.0359143
0.0122406
0.0128858
0.00983372
0.00555055
0.00436657
0.0401825
0.0445422
0.000978815
0.0453764
0.0321947
0.00618418
0.0114997
0.021274
0.00577497
0.0160428
0.0154263
0.0216995
0.000359827
0.00831841
0.013574
0.0332424
0.0283451
0.00555049
0.0296893
0.0103472
0.0272269
0.0277335
0.0400606
0.0533378
0.0123081
0.0383895
0.0534347
0.0319691
0.0267812
0.0193811
0.0282898
0.0278234
0.0286139
0.0392867
0.0246733
0.0751587
0.0293679
0.0253683
0.00394473
0.020779
0.0972195
0.0386883
0.0233652
0.0256477
0.0154611
0.0194167
0.00749706
0.026682
0.0129766
0.0554777
0.0180995
0.0188314
0.023564
0.0217374
0.0097313
0.0348764
0.0212711
0.0266771
0.0300546
0.0432077
0.0219319
0.0036088
0.00470896
0.00496486
0.0392141
0.0231966
0.0665432
0.0035481
0.0163763
0.00655348
0.00411017
0.0223923
0.00710802
0.00669894
0.0172446
0.0041469
0.0176533
0.00725261
0.0169527
0.0163452
0.0164075
0.0296413
0.0222127
0.0361558
0.0450837
0.0237256
0.0362389
0.00342459
0.00464072
0.0235157
0.0433876
0.00322367
0.0444034
0.00448469
0.00511044
0.038202
0.037186
0.0323347
0.0109851
0.0314252
0.0141989
0.0141409
0.00793581
0.0349793
0.0150727
0.00418672
0.0229333
0.0457229
0.0348061
0.0519934
0.0188789
0.015747
0.00309244
0.019319
0.00129383
0.039856
0.00688553
0.0215596
0.0307203
0.000390316
0.000475485
0.0443809
0.0127688
0.0160449
0.000849028
0.0473238
0.00109684
0.000747865
0.000401209
0.0287211
0.00134327
0.00287687
0.0599367
0.00583071
0.0343856
0.0268318
0.0399022
0.0225195
0.0300875
0.0453393
0.00173213
0.0862472
0.00411912
0.00042747
0.0227005
0.0320602
0.0219833
0.0207501
0.0156141
0.0164583
0.0262451
0.020006
0.0352715
0.0357953
0.0444062
0.0343556
0.0173208
0.0207731
0.00396527
0.0250043
0.0105583
0.0264981
0.0279616
0.00290854
0.0180973
0.0219829
0.0268193
0.00652353
0.00745693
0.0429985
0.00112067
0.0225504
0.0142829
0.030303
0.00176694
0.0249437
0.0232698
0.0334799
0.00680641
0.000335446
0.000364668
0.0378446
0.024428
0.00276484
0.0591349
0.00414008
0.03211
0.00609037
0.018491
0.0297522
0.0319034
0.0168952
0.0282831
0.0286508
0.00221813
0.02198
0.030059
0.000837944
0.0343564
0.00107572
0.00775812
0.00551081
0.0265511
0.0064956
0.00669065
0.041809
0.019113
0.0293653
0.00498262
0.0275434
0.00298361
0.0290148
0.0120343
0.0131581
0.014396
0.0455384
0.0294259
0.0209818
0.011509
0.0460962
0.0180762
0.0531117
0.0270113
0.0197931
0.0102852
0.0574379
0.0493401
0.0465345
0.0210612
0.0220517
0.054631
0.0393583
0.0104357
0.00968474
0.0097027
0.0236082
0.00650928
0.0119414
0.020502
0.0369958
0.0190297
0.00816026
0.0472225
0.00702185
0.049322
0.049489
0.0282586
0.0406126
0.000332354
0.069286
0.0575771
0.00026129
0.0414001
0.00376234
0.0268122
0.00278467
0.0605619
0.0288064
0.0402753
0.0601717
0.0429711
0.0227502
0.0268979
0.0397266
0.0102139
0.0200166
0.0142513
0.00793374
0.0543835
0.015106
0.000930933
0.00260044
0.0062209
0.00354726
0.000799
0.0590161
0.0557939
0.0333743
0.0125672
0.0510286
0.00621554
0.0376581
0.0128278
0.00443788
0.00614904
0.0449901
0.0361742
0.0330135
0.0378326
0.00359328
0.000369737
0.00498599
0.00781165
0.0112601
0.00929954
0.0660783
0.00847784
0.00534607
0.0301791
0.020949
0.0189334
0.00780266
0.00929295
0.0467045
0.0365791
0.00891062
0.0232832
0.0193405
0.0153831
0.0231471
0.0159643
0.00824792
0.00981458
0.0127332
0.00367718
0.00419421
0.0494146
0.000781171
0.0517731
0.00244148
0.0155721
0.00409546
0.00432738
0.00944199
0.0538174
0.0098196
0.0441425
0.0447077
0.047821
0.0492831
0.00457054
0.0132095
0.00235563
0.0100742
0.0441227
0.0358274
0.0111146
0.0414812
0.00517812
0.0310478
0.0390302
0.0315322
0.0269587
0.00411508
0.0404994
0.00258053
0.0123278
0.0418313
0.0150785
0.0311682
0.0333782
0.0135019
0.0449217
0.0311326
0.00725267
0.00873232
0.00711958
0.0314656
0.0317985
0.0222035
0.023187
0.0366484
0.0396705
0.0347402
0.0258601
0.0349349
0.0187144
0.0227151
0.0247197
0.0184506
0.019538
0.0308769
0.0158854
0.00632555
0.0161586
0.00277748
0.00694796
0.0109679
0.0230443
0.00570989
0.018095
0.0285428
0.0253299
0.0019639
0.0168248
0.0460934
0.00760715
0.013397
0.0207507
0.0196773
0.0164722
0.00404087
0.0204124
0.0222445
0.013603
0.0370527
0.0457664
0.0361348
0.00252566
0.003018
0.0313828
0.0382535
0.0380511
0.00204922
0.0154233
0.022724
0.0202515
0.0188608
0.0181013
0.0173149
0.0254241
0.000925712
0.00334358
0.0400502
0.0162902
0.0376404
0.024854
0.0113205
0.0645134
0.0114256
0.00858462
0.0456344
0.0400022
0.0350281
0.00507197
0.0361297
0.0339211
0.0259573
0.0209293
0.00462748
0.033982
0.0413534
0.0181523
0.0382088
0.0329104
0.0105367
0.00747257
0.0426766
0.00153734
0.00473759
0.0342295
0.0371461
0.0305566
0.0146238
0.0128314
0.0117243
0.0298453
0.0320958
0.0488737
0.00399783
0.0499519
0.0474633
0.0182232
0.00717837
0.0548142
0.00280897
0.0203683
0.0182506
0.00795647
0.00744242
0.0138196
0.00199084
0.0177504
0.0401961
0.00857999
0.00838758
0.00418824
0.0165263
0.0326989
0.0269786
0.00366191
0.00677447
0.0247894
0.0457079
0.00410507
0.0136056
0.0447309
0.000871632
0.0452179
0.00160319
0.000524097
0.00193524
0.00685275
0.0103893
0.0122
0.0408384
0.0129201
0.0469296
0.00684972
0.0023115
0.0548101
0.0377132
0.0302117
0.0487434
0.0466833
0.0685492
0.0418558
0.00459428
0.0436123
0.0453371
0.0433824
0.0270153
0.0276716
0.0148978
0.0039374
0.0443912
0.0302363
0.0113815
0.00499049
0.0227851
0.0216837
0.00832239
0.0460349
0.0108975
0.0333041
0.0205966
0.0262495
0.0275583
0.0212079
0.0267054
0.00982126
0.0244665
0.0128597
0.00241554
0.0279087
0.0264647
0.0094452
0.0197927
0.0219862
0.00468687
0.00461061
0.0345178
0.0502435
0.0348333
0.0474872
0.0566572
0.0294201
0.009301
0.0422924
0.0368265
0.0266932
0.040984
0.0217877
0.0111944
0.0379623
0.0448694
0.0264002
0.00783025
0.00392995
0.0280564
0.01224