/*--------------------------------*- C++ -*----------------------------------*\
| =========                 |                                                 |
| \\      /  F ield         | OpenFOAM: The Open Source CFD Toolbox           |
|  \\    /   O peration     | Version:  2312                                  |
|   \\  /    A nd           | Website:  www.openfoam.com                      |
|    \\/     M anipulation  |                                                 |
\*---------------------------------------------------------------------------*/
FoamFile
{
    version     2.0;
    format      ascii;
    arch        "LSB;label=32;scalar=64";
    class       volScalarField;
    location    "2/shell";
    object      nut;
}
// * * * * * * * * * * * * * * * * * * * * * * * * * * * * * * * * * * * * * //

dimensions      [0 2 -1 0 0 0 0];

internalField   nonuniform List<scalar> 
7335
(
3.06675e-05
1.95351e-05
3.20951e-06
4.3139e-06
2.15625e-05
4.99432e-05
3.15556e-05
2.20109e-05
2.37625e-05
2.46324e-05
1.58318e-05
5.22112e-06
3.35323e-05
1.37582e-05
1.72687e-05
4.41532e-05
2.70132e-05
5.7816e-05
1.72466e-05
5.26039e-05
4.03644e-05
1.56764e-05
1.57733e-05
8.16158e-06
1.97886e-05
9.87929e-06
5.3951e-06
1.414e-05
1.94415e-05
6.06871e-05
1.40069e-05
6.36797e-05
6.14267e-06
2.70558e-05
0.000107962
5.31868e-05
1.61732e-05
5.22266e-05
2.41749e-05
4.92229e-05
4.34568e-05
5.28301e-05
1.88544e-05
3.52348e-05
6.26559e-05
4.3199e-05
1.6462e-05
1.48979e-05
1.99183e-05
2.91392e-05
1.55733e-05
1.88593e-05
3.3816e-05
2.61203e-05
5.23406e-07
2.33028e-05
1.21453e-07
5.0405e-05
3.25358e-05
2.65669e-05
2.01248e-05
1.90482e-05
1.34209e-05
4.93198e-05
4.14973e-05
1.85004e-05
3.30658e-05
6.1187e-05
1.85296e-05
6.32016e-06
3.01521e-05
1.337e-05
1.61455e-05
2.0997e-05
6.41727e-06
4.8034e-06
3.32239e-05
4.63712e-05
4.86171e-05
2.40731e-06
1.88818e-05
1.81881e-05
1.4196e-05
2.86785e-05
4.23936e-05
4.66235e-05
1.78053e-05
3.03855e-06
1.11695e-05
6.03763e-05
1.88847e-05
4.94823e-06
3.94392e-05
3.73991e-06
5.48452e-05
1.92901e-05
6.26058e-06
4.04608e-06
2.30448e-05
2.06314e-05
3.94961e-05
3.71769e-05
1.38286e-05
4.99698e-05
3.21695e-05
1.77635e-05
1.42031e-05
1.14186e-06
2.54555e-05
1.08893e-05
3.47837e-05
1.62067e-05
1.67066e-05
9.00582e-06
4.61557e-05
1.93172e-05
3.98664e-05
7.68579e-06
2.50053e-07
3.81779e-05
3.4641e-05
5.16171e-06
3.1241e-06
6.0466e-05
1.26494e-05
1.53233e-05
3.57773e-05
6.30594e-06
9.52778e-06
3.91523e-05
1.9192e-05
3.67455e-05
2.60676e-06
2.13669e-05
9.36139e-06
1.33776e-05
9.53051e-06
2.02709e-05
4.15087e-05
1.96004e-05
1.88553e-05
1.80112e-05
1.82604e-05
2.04279e-05
1.69684e-05
1.84112e-05
1.6629e-05
1.67648e-05
8.23616e-06
2.23696e-05
2.27284e-05
1.96518e-05
5.21956e-05
1.36965e-05
1.96024e-05
1.94674e-05
2.64825e-05
0.00011477
1.71031e-05
1.8983e-05
1.84097e-05
4.13725e-06
1.78089e-05
1.68903e-05
1.70416e-05
2.00577e-05
6.06934e-05
2.06589e-05
2.70727e-05
5.03874e-05
1.79699e-05
1.83298e-05
5.16912e-05
4.74289e-05
4.45355e-06
2.22013e-05
2.56553e-06
2.14351e-05
5.27459e-05
4.56638e-05
2.2875e-05
7.17254e-06
2.19912e-05
5.57272e-05
2.94967e-05
1.62001e-05
3.14329e-05
6.75015e-06
2.64665e-05
1.44249e-05
2.83852e-05
8.03776e-06
1.30451e-05
3.04082e-05
3.60521e-05
3.87011e-06
1.00728e-05
1.95835e-05
1.18558e-05
2.19221e-05
4.22548e-05
1.94302e-05
4.44893e-06
1.8666e-05
8.77827e-06
6.97024e-06
1.46973e-05
6.36511e-05
1.32648e-05
8.47459e-06
1.20304e-05
4.83465e-05
1.72501e-05
1.30629e-05
1.78076e-05
2.97283e-06
6.49819e-07
3.937e-05
2.18095e-06
2.64013e-05
5.59306e-05
2.57665e-06
5.13834e-05
4.54314e-06
1.95453e-05
1.19533e-05
7.51469e-06
2.0145e-05
1.44917e-05
2.60515e-05
2.47161e-05
1.55875e-05
1.82317e-05
8.88529e-06
1.52202e-05
8.20935e-06
5.09514e-06
1.1539e-05
5.80495e-06
2.38388e-06
6.5895e-06
0.00011219
6.40023e-05
1.02897e-05
2.11017e-05
4.1731e-05
1.91662e-05
2.4053e-06
1.09619e-05
6.81095e-06
1.64508e-05
1.40057e-05
1.72354e-05
1.68228e-05
4.61865e-05
3.93483e-06
2.30844e-05
4.81693e-05
1.5315e-05
1.90188e-05
5.27179e-06
4.16729e-06
9.1017e-06
4.33695e-06
1.98114e-05
2.22106e-05
1.6637e-05
2.48125e-05
2.67175e-05
1.07977e-05
2.31116e-05
6.68794e-05
1.90985e-05
1.40868e-05
1.98888e-05
6.58134e-05
1.63107e-05
1.0783e-05
1.63647e-05
1.47909e-05
1.2463e-05
1.7423e-05
3.63774e-05
2.22421e-05
4.52425e-05
1.18668e-05
5.55654e-05
4.9063e-05
1.3941e-05
8.44342e-06
4.25131e-06
1.68831e-05
2.41946e-05
2.26714e-05
1.62801e-05
1.33235e-05
1.29438e-05
2.09535e-05
1.98103e-05
1.34876e-05
4.80303e-05
3.0785e-06
2.8871e-05
8.60992e-06
4.20125e-05
2.23004e-05
1.88026e-05
2.22857e-05
3.70412e-06
2.95242e-05
2.36427e-05
2.8255e-05
5.11852e-05
1.01531e-05
1.53283e-05
9.91608e-06
4.91871e-05
2.12865e-05
1.59769e-05
8.96931e-06
1.77269e-05
1.80113e-05
1.58952e-05
4.56578e-05
2.0678e-05
5.93272e-05
3.60475e-05
1.70102e-05
5.326e-05
1.75727e-05
1.67649e-05
5.31425e-05
2.59743e-05
4.11623e-05
1.15996e-05
2.59885e-05
9.25493e-06
2.76861e-05
1.83417e-05
3.54121e-06
1.18415e-05
4.8255e-06
1.37957e-05
6.62247e-06
1.26522e-05
1.68108e-05
1.13282e-05
2.01725e-05
1.75684e-05
1.33022e-05
8.84699e-06
1.77647e-05
1.66753e-05
5.1175e-05
1.87717e-05
2.21832e-06
2.15198e-05
1.44239e-05
1.07275e-05
2.96404e-05
1.7484e-05
1.58982e-05
8.45586e-06
1.79877e-05
2.32463e-05
2.17569e-05
1.87697e-05
2.0933e-05
3.18158e-06
1.79161e-05
1.31688e-05
4.92674e-05
5.52198e-05
1.91983e-05
1.64763e-05
6.11608e-05
4.36761e-05
1.51022e-05
1.48962e-05
2.25182e-05
4.15663e-05
2.42187e-05
1.59636e-05
1.29101e-05
4.52394e-05
1.78323e-05
2.13244e-05
3.76726e-05
8.551e-06
9.78848e-06
1.66007e-05
2.15661e-05
4.02873e-05
4.28188e-05
1.60897e-05
1.14869e-05
1.93057e-05
3.79592e-08
2.16281e-05
4.68606e-05
1.72263e-05
6.40966e-06
1.78472e-05
1.92819e-05
2.01788e-05
1.82432e-05
1.75016e-05
1.92716e-05
5.04618e-05
1.7253e-05
1.82586e-05
7.1415e-06
1.8211e-05
4.28818e-05
4.49643e-05
1.08004e-05
3.37837e-05
9.5527e-06
1.88917e-05
1.00139e-05
2.0202e-05
2.03122e-05
3.52269e-05
5.15825e-05
5.48561e-05
1.80794e-05
4.70693e-05
1.24251e-05
3.68264e-05
5.38508e-05
3.60462e-06
3.64844e-06
1.53574e-05
5.89315e-05
2.47261e-05
2.12736e-05
1.98755e-05
1.81351e-05
2.39385e-05
1.0849e-05
1.87654e-05
2.61815e-05
5.18295e-05
3.06463e-05
8.16609e-06
2.35374e-05
1.78611e-05
1.83123e-05
4.94409e-05
2.8983e-05
6.25545e-05
4.24328e-05
2.82293e-05
2.19445e-05
5.27714e-05
4.34555e-05
1.79071e-05
2.49681e-05
6.80862e-05
1.83844e-05
8.27381e-06
4.03076e-05
1.80664e-05
3.80386e-05
2.2118e-05
4.01342e-06
2.42007e-05
3.94402e-05
1.06502e-05
6.68342e-06
3.84416e-06
2.66478e-05
5.24037e-05
4.39253e-06
8.87817e-08
4.33654e-05
3.02e-06
3.40615e-05
1.43218e-05
2.01944e-05
3.79166e-05
2.74949e-05
4.79688e-05
2.00268e-05
1.74277e-05
2.20262e-05
1.80045e-05
7.3979e-06
4.30022e-05
0.000257032
3.39238e-05
2.29803e-05
6.78971e-06
3.30121e-06
7.01083e-06
3.27612e-05
1.72169e-05
3.05079e-06
2.36705e-06
1.59409e-05
1.11068e-05
1.04239e-05
1.73165e-05
2.34837e-05
1.12306e-05
1.88931e-05
3.8911e-05
1.66497e-05
1.78174e-05
3.62704e-05
5.27952e-05
1.67322e-05
5.66436e-06
1.87745e-05
1.8917e-05
1.22199e-05
2.01696e-05
3.81079e-05
6.52918e-05
1.16801e-05
5.4138e-06
5.15548e-05
1.59516e-05
7.96655e-06
5.42924e-06
4.4974e-05
1.82048e-05
1.95087e-05
1.96019e-05
1.71911e-05
1.93197e-06
5.43435e-06
1.88924e-05
5.29715e-05
2.1514e-05
2.14202e-05
1.92798e-05
2.37642e-05
5.39236e-05
3.9177e-05
2.21713e-05
1.75887e-05
1.91745e-05
2.9613e-05
1.6454e-05
2.68744e-05
5.21897e-05
5.5097e-05
1.06601e-05
4.03147e-05
4.02691e-05
8.14915e-06
9.97106e-06
2.30659e-05
1.94729e-05
2.79686e-05
2.96803e-05
3.94105e-05
8.03132e-08
5.18796e-06
1.3083e-05
2.23051e-05
1.57475e-05
1.58107e-05
3.95027e-05
4.87546e-05
4.58709e-05
1.2175e-05
4.08831e-05
1.72205e-05
1.88785e-05
3.91788e-05
2.04595e-05
1.70464e-05
1.85784e-05
2.07736e-05
7.82578e-06
4.5415e-06
9.88364e-06
1.01538e-05
2.88564e-06
4.14202e-05
2.47147e-05
5.30539e-05
6.5724e-05
3.46071e-05
5.39973e-06
4.31752e-06
1.73963e-05
3.67252e-05
8.14201e-06
9.70283e-06
1.58535e-05
1.49909e-05
2.28776e-05
2.03058e-05
6.98927e-06
1.60186e-05
3.81063e-05
4.46631e-05
2.2262e-05
1.77536e-05
2.44824e-06
1.67638e-05
1.91675e-05
1.8023e-05
3.02786e-05
1.4439e-05
4.70392e-05
1.6333e-05
3.5547e-05
1.64736e-05
1.43235e-05
5.36709e-05
1.81792e-05
5.48531e-05
3.83385e-05
1.20756e-05
2.43372e-05
2.02286e-05
2.37072e-05
2.52771e-05
2.69839e-05
2.23369e-05
8.39776e-06
1.29879e-05
2.70013e-05
1.75234e-05
1.23619e-05
1.70549e-05
2.23566e-05
5.01734e-05
1.257e-05
1.81514e-05
2.02019e-05
4.47825e-06
1.14857e-05
5.28989e-06
5.49584e-05
2.85092e-05
7.90782e-06
1.56909e-05
3.51777e-06
7.03776e-06
2.01164e-05
5.29395e-06
4.23094e-06
2.13174e-05
3.25744e-05
9.37496e-06
2.19474e-05
1.58621e-05
3.53455e-05
1.83879e-05
1.89761e-05
2.01275e-05
6.84778e-06
1.94377e-05
7.32985e-06
7.56004e-07
3.42149e-05
1.07097e-05
2.31376e-06
4.0441e-05
2.31151e-05
2.6919e-05
9.54668e-06
1.04949e-05
4.85589e-05
1.85879e-05
6.1317e-06
3.03189e-05
2.68102e-05
1.67322e-05
2.03852e-05
0.000403433
1.30184e-05
2.52613e-05
7.93087e-06
8.27534e-06
4.99639e-05
1.87655e-05
1.99982e-05
3.82658e-06
1.69681e-05
9.98101e-06
5.56828e-06
1.11944e-05
5.15731e-06
3.19935e-05
1.12812e-05
1.21596e-05
5.85676e-05
1.1548e-05
1.72753e-05
4.60299e-05
1.59111e-05
3.07729e-05
2.78083e-05
5.09227e-05
1.83171e-05
4.54715e-05
3.55921e-05
4.44952e-07
1.82147e-05
2.06171e-05
5.51278e-06
9.5421e-06
2.34441e-06
3.6916e-07
1.18312e-05
2.8371e-05
7.68479e-06
2.19032e-05
3.95939e-05
1.95886e-05
4.49113e-05
1.24254e-05
1.81333e-05
4.81712e-06
7.56722e-06
1.30116e-05
5.27881e-06
1.12242e-05
5.48316e-05
2.3847e-05
2.20204e-05
4.16213e-05
1.78346e-05
1.42361e-05
4.78579e-05
2.80503e-06
1.77878e-05
2.45784e-05
2.39469e-05
1.7942e-05
1.28544e-05
4.64267e-05
4.92467e-05
3.27612e-05
4.40282e-05
0.000113414
2.09749e-06
1.30295e-05
1.1653e-05
1.93797e-05
1.53148e-05
1.54497e-05
3.81358e-05
1.1509e-05
1.58501e-05
4.14434e-05
1.4558e-05
1.52018e-06
5.20841e-05
5.84109e-05
1.43872e-05
2.46679e-05
1.46107e-05
1.51179e-05
4.98713e-05
2.23632e-05
2.51625e-05
3.6346e-05
4.26073e-05
2.40389e-05
2.46954e-05
1.58788e-05
3.19499e-05
1.12961e-05
1.82951e-05
2.91438e-05
4.60154e-06
8.51856e-06
1.14362e-05
6.9165e-06
2.97487e-05
1.4166e-05
5.09246e-06
3.13306e-06
1.37888e-05
1.20218e-05
1.96428e-05
1.94154e-05
2.17339e-05
2.92642e-05
2.08947e-05
1.00606e-05
4.5546e-05
5.38966e-05
1.99788e-05
3.44626e-06
4.37696e-05
1.72412e-05
2.20326e-05
1.44045e-05
2.32017e-05
1.43631e-05
3.65381e-05
6.04757e-05
4.89684e-06
4.91335e-05
4.06379e-06
7.1421e-06
1.96771e-05
3.07307e-05
5.82528e-05
2.41088e-05
1.73356e-05
1.68874e-05
3.90749e-05
1.71566e-05
1.17165e-05
1.04232e-05
9.61777e-06
2.44978e-05
1.19782e-05
1.57727e-05
2.05718e-05
2.09757e-05
3.10961e-05
4.01663e-05
1.29998e-05
2.82118e-05
1.88802e-05
1.76416e-05
2.94495e-05
3.51506e-05
7.51008e-06
1.20319e-05
1.52034e-05
1.24257e-05
1.76448e-05
2.36493e-05
2.84545e-05
3.23023e-06
7.34794e-06
5.12153e-05
6.44511e-05
3.24648e-05
3.25865e-05
3.70519e-05
2.10711e-05
1.67684e-05
1.78875e-05
1.72505e-05
6.21764e-05
6.24613e-06
2.6703e-05
6.25059e-05
2.2315e-05
1.81574e-05
1.16662e-05
1.72968e-05
4.9439e-05
1.6777e-05
9.94044e-06
5.96557e-05
2.72005e-05
1.79653e-05
3.56443e-06
5.56402e-05
6.3206e-06
7.35731e-06
7.77581e-06
1.04231e-05
2.8135e-05
1.33623e-05
2.11435e-05
5.3013e-06
4.92251e-05
1.60861e-05
5.27181e-05
5.63551e-06
7.88588e-06
8.79738e-06
5.08804e-05
2.02744e-05
4.45897e-05
5.32661e-05
1.36281e-06
3.38663e-06
2.07343e-05
8.51793e-06
1.67997e-05
2.6227e-05
1.54027e-05
2.42143e-05
4.88661e-05
2.54226e-05
1.1476e-05
4.9888e-05
1.99126e-05
1.51257e-05
1.58366e-05
1.10958e-05
1.61099e-05
9.59248e-06
1.71199e-05
4.76769e-05
2.96987e-05
2.78027e-05
2.22599e-05
5.34767e-05
1.04409e-05
9.8324e-07
1.65905e-05
4.6588e-05
4.38835e-05
5.74272e-05
1.56193e-05
4.34631e-05
4.82889e-05
1.30375e-05
1.89258e-05
2.27357e-05
1.17555e-06
1.43849e-05
1.22915e-05
3.9463e-08
1.73116e-05
4.90509e-05
2.67866e-05
1.29624e-05
1.66923e-05
1.27529e-05
1.80457e-05
5.57314e-05
4.07567e-05
4.69869e-05
9.75894e-06
3.77843e-05
1.83381e-05
1.82043e-05
4.81138e-05
1.97342e-05
3.72105e-05
1.88826e-05
1.59873e-05
1.66679e-05
3.44297e-05
1.99277e-05
2.75207e-05
1.65134e-05
2.9194e-05
1.58848e-05
1.65259e-05
3.50251e-05
6.63219e-06
2.98906e-05
2.32591e-05
3.32488e-05
2.1952e-05
2.01091e-05
1.33457e-07
1.0761e-07
1.90258e-05
1.64137e-05
6.07959e-05
1.98259e-05
4.43875e-05
4.26927e-05
2.02509e-05
4.19416e-05
4.13084e-05
2.74383e-05
1.68386e-05
1.5304e-05
1.30642e-05
4.88258e-05
2.21369e-05
2.11384e-05
1.70782e-05
2.86727e-05
2.23212e-05
5.47046e-05
2.33657e-05
1.00685e-05
7.57432e-06
7.35139e-06
3.17329e-05
1.03476e-05
1.19921e-05
6.61235e-05
1.4226e-05
2.56816e-05
2.76119e-06
2.77678e-05
1.00252e-05
3.77496e-05
3.52682e-05
4.92763e-05
4.10162e-05
1.80746e-05
2.61533e-05
2.71093e-06
1.93175e-05
2.37062e-05
8.65229e-06
1.59832e-05
6.41274e-06
3.65069e-05
6.00838e-05
2.63652e-05
1.19505e-06
2.54601e-06
3.97742e-06
1.8303e-05
3.88558e-05
1.59571e-05
1.99669e-05
2.38589e-05
8.36592e-06
2.45764e-06
3.52529e-05
1.40634e-05
3.56602e-05
2.11343e-05
3.33579e-05
3.50137e-05
1.86722e-05
1.66812e-05
5.2882e-05
1.09435e-05
4.80866e-05
1.18071e-05
1.96215e-05
1.6318e-05
3.1676e-06
7.58605e-06
3.13317e-06
2.04566e-05
1.6573e-05
5.4137e-05
2.22889e-05
2.26852e-05
2.0133e-05
3.88457e-05
1.41636e-05
2.58683e-05
3.79188e-06
3.63326e-05
1.73755e-05
1.49523e-05
1.71827e-05
7.75732e-06
3.12983e-05
4.28746e-05
1.46896e-05
9.78747e-06
2.70235e-06
3.053e-05
6.93049e-06
2.95975e-05
2.01757e-05
1.95556e-05
1.41339e-05
1.90834e-05
1.31096e-05
3.6571e-05
2.37635e-06
3.20543e-06
2.64693e-05
1.29742e-05
3.29081e-05
2.16424e-05
2.08042e-05
1.80514e-05
6.99361e-06
4.59232e-05
1.12918e-06
1.00014e-05
4.54462e-05
8.01337e-06
2.94991e-05
2.67863e-05
1.5549e-05
1.66463e-05
1.89018e-05
1.49161e-05
5.4646e-05
1.36339e-05
1.72346e-05
1.14985e-05
5.83063e-05
2.40778e-05
4.47132e-06
1.94816e-05
1.67423e-05
1.43674e-05
4.92573e-05
4.01923e-05
3.20946e-05
1.6598e-05
5.17165e-05
1.4267e-05
1.95289e-05
3.61653e-05
1.59685e-05
1.67638e-05
3.35883e-05
3.05449e-05
1.7529e-05
5.40185e-05
2.49951e-06
3.90842e-05
1.83393e-05
1.46255e-05
2.81946e-05
2.84766e-06
2.99318e-05
1.97732e-05
1.62443e-05
4.01525e-05
8.94039e-06
8.17996e-06
4.43532e-05
1.89668e-05
4.89731e-05
2.44131e-05
5.61978e-06
2.07124e-05
5.00075e-06
2.57157e-05
4.05854e-05
9.1568e-06
5.80322e-05
1.73633e-05
1.48389e-05
1.06507e-05
5.0659e-05
5.36086e-06
1.10176e-05
2.74764e-05
1.73344e-05
1.75964e-05
1.43363e-05
1.52324e-05
1.22922e-05
1.71798e-05
2.22224e-05
4.67358e-05
1.99953e-05
8.30544e-06
2.29191e-06
4.33324e-05
1.76814e-05
2.02448e-05
2.7814e-05
6.48581e-06
1.92163e-05
1.67898e-05
2.36289e-05
5.34625e-05
1.48967e-05
5.0415e-05
3.09896e-05
1.58522e-05
5.66888e-05
3.51711e-05
1.80044e-05
1.24469e-05
2.62779e-05
1.22e-05
3.53099e-05
1.50008e-05
1.75501e-06
1.35916e-05
3.8156e-06
3.46639e-06
1.74254e-05
3.67095e-05
4.33498e-06
3.38559e-05
3.29048e-06
6.01661e-06
1.22685e-05
1.69978e-05
2.45616e-05
4.29465e-05
1.5551e-05
1.27424e-05
1.19614e-05
1.94636e-05
2.97119e-05
1.67093e-05
4.42391e-05
3.95796e-05
1.60004e-05
8.17605e-06
1.54875e-05
2.95966e-06
2.90071e-05
1.79979e-05
1.98157e-05
2.61001e-05
2.71709e-05
1.95003e-05
1.77331e-05
2.1804e-05
1.67293e-05
1.30792e-05
5.31604e-06
3.44271e-05
1.50062e-05
5.49668e-05
3.32509e-06
6.13546e-05
4.61601e-05
8.11817e-06
1.92085e-05
1.51844e-05
1.12441e-05
9.47762e-06
2.36366e-05
1.03067e-05
2.92732e-05
5.30169e-05
5.1268e-05
3.57011e-06
2.05458e-05
2.27998e-05
3.61474e-05
3.6666e-05
4.6978e-05
2.44741e-06
2.38442e-05
4.63876e-05
1.87476e-05
2.17422e-05
1.6833e-05
1.55813e-05
2.72564e-05
2.19485e-05
2.45199e-05
2.40298e-05
7.34346e-06
1.63215e-05
1.09004e-05
1.5004e-05
4.04286e-05
7.22202e-06
8.42544e-06
9.70294e-06
6.75637e-05
2.12245e-05
4.87094e-05
1.50262e-05
4.81189e-06
3.42257e-05
1.96622e-05
2.63639e-05
1.10835e-05
1.75747e-05
1.73118e-05
1.74419e-05
1.06188e-05
1.89393e-05
2.0122e-06
4.13109e-05
1.74647e-05
2.50848e-05
6.19221e-05
1.71916e-05
1.15738e-05
9.65991e-06
5.80963e-05
1.4998e-05
1.9666e-05
1.62599e-05
1.74646e-05
4.20936e-05
3.81962e-05
1.65317e-05
3.7704e-06
1.65395e-05
1.68184e-05
1.66785e-05
1.73652e-05
1.962e-05
2.68735e-05
4.64062e-05
1.81224e-05
2.12612e-05
1.60029e-05
5.03877e-05
4.12972e-05
4.15737e-05
4.82082e-05
1.60891e-05
1.90579e-05
1.71747e-05
1.79992e-05
4.24941e-05
2.27448e-05
1.89707e-05
2.43564e-05
1.21903e-05
9.35837e-06
1.6098e-05
1.72078e-05
6.17317e-05
1.72182e-05
5.38374e-06
2.74971e-05
4.70012e-05
1.65417e-05
2.50575e-05
4.82166e-05
9.42664e-06
1.75343e-05
1.84703e-05
1.5792e-05
1.63117e-05
2.31962e-05
1.67314e-05
2.74107e-05
2.4138e-05
2.18624e-05
2.10233e-05
5.27631e-05
1.55142e-05
2.53483e-05
4.577e-05
2.74691e-05
3.44133e-05
2.47853e-05
8.86823e-06
2.16126e-05
2.52939e-05
2.14263e-05
2.7153e-05
4.67432e-05
9.40628e-06
1.94886e-05
2.05652e-05
3.95831e-05
2.28867e-05
6.62744e-06
4.83611e-05
1.50294e-05
3.65308e-05
5.01641e-05
4.44333e-05
2.83912e-05
6.38708e-05
4.46468e-05
1.99948e-05
1.17524e-05
4.93663e-05
2.62518e-05
4.29623e-06
2.39176e-05
1.36371e-05
1.08503e-05
2.74091e-05
1.76215e-05
4.66671e-05
2.38063e-05
2.09313e-05
2.13758e-05
2.7286e-05
1.97784e-05
2.27576e-05
2.79931e-05
2.37488e-05
2.88729e-05
2.92802e-05
2.14232e-05
1.67802e-05
2.86485e-05
1.07374e-05
2.65712e-05
3.6744e-05
4.06024e-05
6.21355e-06
1.14428e-05
3.9292e-05
3.92568e-05
1.68915e-05
1.7132e-05
2.66441e-05
1.66332e-05
4.32133e-05
1.92887e-05
4.91009e-05
1.46721e-05
1.42026e-05
3.71462e-05
1.47991e-05
1.6061e-05
1.84153e-05
7.54759e-06
2.20702e-05
2.25949e-05
1.65683e-05
2.21827e-05
1.20884e-05
3.5313e-05
2.16083e-05
5.39647e-06
4.59841e-05
3.31912e-06
3.44234e-05
3.25927e-05
2.48754e-05
6.61696e-05
2.89407e-05
2.52275e-05
2.24957e-05
1.97285e-05
2.41001e-05
2.38389e-05
1.86042e-05
1.04477e-05
8.34735e-06
5.24758e-05
1.5078e-05
2.35956e-05
1.48083e-05
4.52953e-05
1.70445e-05
4.10262e-05
2.88217e-05
8.49944e-06
2.01512e-05
3.6267e-05
6.16082e-06
5.12861e-05
1.8881e-05
2.47711e-05
8.48485e-06
1.41213e-05
4.14002e-05
2.90874e-05
2.19787e-05
3.95782e-05
1.95721e-05
3.96239e-05
2.36375e-05
3.29185e-05
2.44254e-05
1.88411e-05
4.07009e-05
1.60986e-05
2.15331e-05
1.6557e-05
4.19883e-06
1.22296e-05
4.75758e-06
2.19811e-05
4.08362e-05
3.62846e-06
2.24242e-05
3.62177e-05
1.73306e-05
5.85945e-05
4.5845e-06
9.07265e-08
5.2044e-05
4.99004e-05
2.66111e-05
7.4982e-06
2.46911e-05
2.43458e-05
1.62135e-05
6.55511e-06
3.55788e-05
2.35142e-05
5.35574e-05
5.64605e-05
1.31043e-07
1.74072e-05
5.67025e-05
2.41347e-05
4.95849e-05
3.49473e-05
1.97918e-05
2.14559e-05
4.28729e-05
1.8347e-05
4.34909e-06
4.58229e-05
2.73442e-05
3.92587e-05
1.61584e-05
6.03092e-05
1.83637e-05
3.18292e-05
4.24415e-06
1.60501e-05
2.42147e-05
3.1206e-05
1.68972e-05
4.14539e-05
2.14267e-05
3.74054e-06
6.55985e-07
1.6999e-05
1.47499e-05
2.64772e-05
4.92281e-05
1.0128e-05
1.67845e-05
2.25421e-05
2.18109e-05
2.11585e-05
2.67117e-05
3.227e-05
4.93014e-05
2.03226e-05
2.038e-05
1.4277e-05
2.86511e-05
1.10667e-05
1.20368e-05
4.18762e-05
2.12986e-05
5.19044e-05
2.82102e-05
4.77387e-05
5.66137e-05
2.89091e-05
1.64836e-05
2.90809e-05
1.67281e-05
2.0067e-05
3.63694e-05
1.32305e-05
1.68185e-05
1.49728e-05
2.28272e-05
2.10814e-05
2.56794e-05
5.59657e-05
1.84352e-05
3.82487e-06
1.809e-05
4.30263e-05
8.86629e-06
1.79659e-05
4.57836e-05
5.09276e-05
1.45395e-05
1.82794e-05
5.1788e-05
4.82966e-06
1.71917e-05
8.32248e-06
7.79959e-06
2.13059e-05
5.46006e-05
1.1857e-05
5.55729e-05
3.26774e-06
1.33177e-05
7.91244e-06
1.59749e-05
1.11377e-05
4.47183e-06
5.88677e-06
1.71889e-05
1.43194e-05
2.60042e-05
4.91379e-05
2.90563e-05
1.67083e-05
1.71751e-05
3.21637e-05
1.40115e-06
5.94302e-05
4.59384e-05
2.31754e-05
2.94652e-05
1.97917e-05
1.46669e-05
2.34951e-05
2.96801e-05
1.34161e-05
1.94883e-05
3.60776e-05
5.90703e-05
2.68959e-05
2.44528e-06
4.52165e-05
2.50984e-06
1.74271e-05
2.25188e-05
1.08919e-05
2.43488e-06
1.40641e-05
2.83621e-05
1.42025e-05
5.50206e-05
2.33017e-05
1.59149e-05
1.39705e-05
3.43155e-06
1.84669e-05
2.34696e-05
2.28107e-05
4.07271e-05
1.51658e-05
2.20578e-05
1.34002e-05
5.21134e-05
6.28007e-06
2.83936e-05
1.14076e-05
2.24153e-05
7.68897e-06
1.77925e-05
3.54696e-05
4.25908e-05
3.42867e-06
1.57166e-05
1.72325e-05
2.12043e-05
3.89949e-05
7.94651e-08
6.48577e-06
2.1731e-05
4.8396e-06
3.29354e-05
1.45654e-05
1.58431e-05
1.13819e-05
2.8506e-05
1.61753e-05
2.51442e-06
2.91686e-05
1.12238e-05
4.48455e-05
3.24754e-05
1.75436e-05
1.41686e-05
1.54433e-05
2.1077e-05
1.1248e-05
9.09686e-06
1.80731e-05
3.68999e-05
1.36836e-05
2.76528e-05
1.39166e-05
9.34527e-06
3.71612e-05
4.11965e-05
1.05842e-06
4.05062e-06
3.76035e-05
1.20636e-05
1.11885e-05
5.68941e-05
1.52394e-05
1.55064e-05
1.77961e-05
4.43488e-05
1.82981e-05
4.0602e-05
4.23225e-05
7.21e-06
4.02742e-05
1.04108e-05
3.57827e-05
1.80691e-05
3.34213e-05
1.6057e-05
2.89901e-06
1.31867e-05
2.30044e-05
3.49982e-05
1.87376e-05
7.66149e-06
1.13668e-05
9.27705e-06
6.7814e-06
1.8606e-05
7.05141e-06
5.17477e-05
3.56973e-05
2.74486e-05
9.93068e-06
4.22086e-05
1.82992e-05
2.82301e-05
5.67197e-05
5.06897e-05
5.79262e-06
6.20586e-06
3.42387e-05
1.82305e-05
1.72288e-05
1.73537e-05
5.63403e-05
1.79478e-05
7.73654e-06
1.19252e-05
5.70981e-05
7.3411e-06
2.8591e-05
2.87865e-05
7.0837e-06
1.78861e-05
1.38543e-05
4.784e-05
5.19519e-05
5.78018e-05
3.44113e-05
5.51897e-06
2.62536e-05
5.42631e-05
2.07623e-05
5.79766e-06
2.74963e-05
1.55785e-05
1.58061e-05
4.31859e-05
2.37816e-05
3.86284e-06
2.94483e-05
2.55893e-05
4.89172e-05
2.46841e-05
2.1799e-05
1.26241e-05
8.29221e-06
9.87954e-06
1.06878e-05
3.83183e-05
2.72208e-05
1.31851e-05
2.03848e-05
1.72335e-05
1.61983e-05
1.51314e-05
1.53171e-05
1.16655e-05
7.13481e-06
1.06658e-05
1.39266e-05
6.10339e-05
4.9307e-05
2.20892e-06
2.87059e-05
2.23398e-05
1.20763e-05
1.24622e-05
3.65926e-05
9.65352e-06
1.55753e-05
4.90754e-05
3.91331e-05
2.43711e-05
4.7037e-05
2.1991e-05
1.15895e-05
3.71908e-05
2.14838e-05
1.8334e-05
1.88286e-05
1.43922e-05
2.67962e-05
6.09015e-05
2.61264e-05
1.63811e-05
4.2792e-05
4.50824e-05
2.19305e-05
1.81909e-05
7.3134e-06
1.91195e-05
1.07939e-05
5.40923e-05
3.43026e-05
2.32236e-05
2.64824e-05
1.61214e-05
2.12797e-05
1.52681e-05
4.99222e-05
2.04338e-05
1.62384e-05
9.40205e-06
5.92511e-05
3.34801e-06
3.12434e-05
2.32541e-05
2.07932e-05
5.2198e-05
3.12968e-05
8.67385e-06
1.77824e-05
7.73427e-06
1.1938e-05
4.59833e-06
6.72138e-05
2.98938e-05
9.38558e-06
1.36261e-05
1.02836e-05
2.75429e-05
1.633e-05
3.62092e-05
3.93144e-05
2.52984e-05
1.41794e-05
4.56877e-05
2.54464e-06
1.40432e-05
5.91722e-05
2.76328e-05
3.12597e-05
4.90285e-05
1.74134e-05
1.82119e-06
1.4787e-05
1.388e-05
8.51039e-06
2.13133e-05
4.65347e-06
1.42197e-05
9.23148e-06
1.86807e-05
1.3335e-05
4.35744e-05
4.04121e-06
1.36847e-06
5.24449e-05
2.43492e-05
1.1757e-05
1.41928e-05
2.76615e-05
2.09741e-05
1.88744e-05
1.32233e-05
4.80079e-05
5.58908e-05
1.91547e-05
1.84103e-05
1.14393e-05
2.57316e-05
2.71402e-05
3.10331e-06
6.26325e-05
2.02682e-05
2.97273e-05
3.759e-06
2.7355e-05
1.57496e-05
4.32135e-05
2.35478e-05
2.61048e-05
8.34796e-06
1.85318e-05
1.12373e-05
1.55374e-05
2.28061e-06
2.833e-06
6.2294e-05
2.48646e-05
2.34801e-05
1.87314e-05
2.14988e-05
3.03676e-05
3.97035e-07
7.67416e-06
4.25765e-06
1.37084e-05
3.96491e-05
4.65153e-06
1.91371e-05
1.15033e-05
2.56445e-05
1.96547e-05
3.19611e-05
2.48943e-05
2.84352e-05
5.64303e-05
1.73886e-05
2.00236e-05
3.25903e-05
2.96311e-05
1.65245e-05
1.00307e-05
1.30394e-05
3.64042e-05
3.09629e-05
3.16226e-05
8.1903e-06
3.83316e-05
6.09123e-06
3.84937e-05
5.1573e-07
5.18512e-05
3.95947e-05
3.47463e-05
1.78639e-05
2.48061e-05
9.61205e-06
7.39223e-06
4.56311e-05
1.05139e-05
4.51848e-05
4.55654e-05
2.38047e-05
1.87019e-05
1.74386e-05
4.36968e-05
1.85642e-05
4.11842e-05
2.34016e-05
1.88985e-05
1.77194e-05
3.00474e-05
2.46476e-05
1.58073e-05
1.16329e-05
1.50444e-05
4.75957e-05
2.30517e-05
1.82407e-05
9.0233e-06
1.02552e-05
1.74374e-05
1.21522e-05
2.82761e-06
1.06179e-05
1.80922e-05
1.68722e-05
1.98243e-05
4.03908e-05
8.20477e-06
1.80629e-05
4.84867e-05
5.06663e-05
2.02432e-05
2.62589e-05
1.60219e-05
1.091e-05
1.22284e-05
1.61151e-05
2.06839e-05
3.69784e-05
1.52356e-05
1.72048e-05
1.61825e-05
2.30111e-05
2.88675e-05
1.76495e-05
1.92828e-05
9.15788e-06
1.39568e-05
2.34194e-05
1.44187e-05
5.56722e-05
2.48667e-05
4.63286e-05
2.54081e-05
5.90206e-05
6.49306e-06
3.94427e-06
1.68382e-05
4.13953e-06
4.04379e-05
1.22438e-05
2.61501e-05
1.5728e-05
1.21498e-05
1.92374e-05
5.32049e-05
1.79566e-05
3.88277e-06
3.0179e-06
2.39337e-05
4.05049e-06
3.25862e-05
2.30019e-05
2.94557e-06
3.17653e-06
2.11854e-05
3.49915e-05
3.43662e-05
1.60803e-05
4.48038e-05
1.86188e-05
3.46715e-06
1.25735e-05
4.23161e-06
1.67393e-05
1.42173e-05
2.84076e-05
1.25873e-05
2.43277e-05
9.92e-06
8.80999e-06
1.03175e-05
1.92348e-05
1.16491e-05
2.24139e-05
1.65141e-05
2.3326e-05
1.88623e-05
1.69463e-05
8.79791e-06
4.19808e-05
1.73178e-05
3.40952e-05
1.6756e-05
3.98957e-05
1.02707e-05
5.66462e-05
2.55493e-05
1.62526e-05
1.22055e-05
1.44256e-05
3.83598e-06
1.04375e-05
1.06271e-05
1.56002e-05
2.47366e-05
1.58379e-06
4.90127e-05
3.7511e-05
1.03743e-05
2.55578e-05
1.08877e-05
3.93076e-05
8.9592e-06
9.27873e-06
6.02964e-05
2.48574e-05
5.79256e-05
4.46804e-05
2.8652e-06
1.76001e-05
1.11926e-05
1.49109e-05
3.56327e-05
1.16144e-05
1.49521e-05
1.48166e-05
2.1589e-05
1.45026e-05
6.18086e-06
2.14633e-05
1.21042e-06
3.80112e-05
4.02085e-05
2.05461e-05
4.14173e-05
2.24433e-05
2.82636e-05
1.3456e-05
2.71014e-05
1.7133e-05
3.425e-05
1.40724e-05
1.90835e-05
1.77899e-05
1.57848e-05
3.94871e-05
2.17348e-05
4.5547e-05
3.68289e-06
1.5524e-05
3.9441e-05
1.53083e-05
1.54885e-05
2.85286e-05
1.84857e-05
7.61941e-06
3.69936e-05
1.2331e-05
1.0966e-05
3.34475e-05
2.78027e-05
1.07359e-05
2.51685e-05
8.31075e-06
2.90773e-05
1.74444e-05
1.09513e-05
7.12751e-06
4.58196e-05
3.18099e-05
2.74152e-05
2.62602e-05
1.95005e-05
2.31078e-05
9.87538e-06
4.02337e-05
5.09049e-05
1.42126e-05
3.06738e-05
2.88924e-06
2.31255e-05
3.63976e-05
1.4986e-05
1.23949e-05
5.04709e-05
4.05145e-05
3.35228e-05
9.00746e-06
3.91827e-05
3.67258e-05
1.81651e-05
2.25181e-05
1.9101e-05
2.64847e-05
1.65207e-05
1.87216e-05
5.08172e-05
1.8112e-05
2.52359e-05
3.22722e-05
1.60886e-05
2.02477e-05
3.34081e-05
5.9123e-06
3.66755e-05
3.48934e-05
1.9943e-05
1.26712e-05
8.21772e-06
2.27612e-05
5.09265e-06
3.83598e-06
6.86935e-06
2.43974e-05
4.53805e-05
2.70642e-05
4.81798e-05
1.57663e-05
2.25369e-05
4.97183e-05
1.115e-05
2.58563e-05
1.82192e-05
1.08777e-05
4.0031e-05
3.4064e-05
1.33194e-05
1.83266e-05
1.93514e-05
3.56098e-05
1.25398e-05
2.58273e-05
2.51215e-05
1.88247e-05
1.88494e-05
1.98749e-05
1.21002e-05
2.32882e-05
2.12645e-05
1.94795e-05
2.86707e-05
2.29368e-05
1.00794e-05
4.63321e-05
3.93979e-05
2.27402e-05
3.47095e-05
2.92981e-05
1.40521e-05
1.70541e-05
2.2198e-05
4.64204e-05
2.58156e-05
2.65031e-05
1.08153e-05
4.25903e-05
2.43486e-05
1.3236e-05
4.48426e-05
4.26759e-05
3.29499e-05
4.88322e-06
3.87433e-05
1.6018e-05
2.91691e-05
9.31383e-06
6.95808e-06
6.92967e-06
1.62357e-05
3.31282e-05
6.53976e-06
1.70592e-05
1.92116e-05
6.42087e-06
1.34564e-05
2.58399e-05
1.4058e-05
3.54106e-05
1.5869e-05
1.52353e-05
7.79646e-06
2.07253e-05
7.18075e-06
1.30689e-05
9.92086e-06
1.30612e-05
1.61125e-05
2.14898e-05
2.56265e-05
2.1917e-05
1.34293e-05
1.09838e-05
1.6085e-05
1.46921e-05
6.57024e-06
1.9822e-05
2.03208e-05
4.12548e-06
3.31554e-05
2.88208e-05
1.65287e-05
2.92471e-06
1.571e-05
4.84597e-06
1.97299e-05
1.71801e-05
1.47952e-05
2.27818e-05
3.96465e-05
3.25856e-05
1.86579e-05
3.86629e-06
8.60481e-06
8.51435e-06
5.94549e-05
4.75957e-08
4.96541e-05
2.5594e-05
2.44691e-05
4.00081e-05
2.18008e-05
2.95343e-05
4.79842e-05
2.12797e-05
2.30107e-05
8.51345e-05
1.5979e-05
1.7989e-05
1.51459e-05
1.27207e-05
0.000112517
1.33313e-05
3.18229e-05
4.65002e-05
3.00787e-05
2.20914e-05
2.55498e-05
2.97698e-05
4.77906e-05
4.3878e-06
8.46945e-06
3.48113e-05
1.41481e-05
2.43956e-05
1.80637e-05
5.53379e-06
2.06591e-05
1.55037e-05
2.09885e-05
1.73137e-05
3.70675e-05
1.71922e-05
4.30021e-05
5.71268e-06
3.20796e-05
4.02992e-05
1.84911e-05
2.88991e-05
1.62871e-05
4.31162e-05
5.8406e-05
2.8729e-05
3.57296e-06
9.56163e-06
9.77838e-06
1.10899e-05
1.38218e-05
1.90439e-05
5.72138e-05
1.52205e-05
2.52889e-06
5.99178e-05
1.69087e-05
2.1693e-05
2.86758e-05
3.94786e-05
9.56186e-06
3.8053e-05
3.95067e-05
1.09496e-05
4.17344e-06
2.48095e-05
3.25096e-05
5.07994e-05
4.78792e-05
9.9131e-06
5.14519e-05
1.66576e-05
4.46359e-05
1.90103e-05
2.48188e-05
4.02689e-05
3.03734e-05
5.38617e-05
4.27758e-05
1.73074e-05
4.67237e-05
1.55265e-05
1.56323e-05
1.5992e-05
0.000109407
2.10816e-05
4.34077e-05
2.37611e-05
4.82677e-05
4.62072e-05
1.83428e-05
2.36939e-05
3.43891e-05
1.77685e-05
2.38243e-05
4.43565e-05
2.96039e-05
1.9802e-05
2.45423e-05
2.16118e-05
2.66731e-05
5.90534e-05
3.79257e-05
1.2163e-05
1.79917e-05
4.06539e-05
2.71784e-05
5.52802e-05
2.21503e-05
2.6795e-05
4.14381e-06
2.00835e-05
1.57021e-05
1.35288e-05
1.42554e-05
1.75481e-05
6.03159e-05
1.80005e-05
4.15973e-05
1.58916e-05
1.70518e-05
9.28995e-06
1.81791e-05
1.73714e-05
2.41541e-05
1.78081e-05
2.53188e-05
1.76377e-05
2.3023e-05
1.29678e-05
2.23286e-05
3.59624e-05
3.52978e-05
2.42038e-05
1.8476e-05
1.91692e-05
1.31227e-05
4.32781e-05
1.8138e-05
1.65727e-05
1.8194e-05
1.72379e-05
4.69797e-05
1.15713e-05
1.55096e-05
1.82357e-05
1.8435e-05
4.55352e-05
3.32165e-06
3.03913e-06
2.90293e-05
4.75657e-06
1.4127e-05
3.3503e-05
2.49328e-05
2.8045e-06
1.03711e-05
1.25625e-05
4.31303e-05
2.16632e-05
1.94132e-05
5.99311e-05
1.69296e-05
3.677e-05
1.57856e-05
3.90568e-05
1.01237e-05
2.15974e-05
1.79369e-05
1.86248e-05
1.55337e-05
4.64661e-06
5.40134e-06
6.05133e-05
3.15238e-05
1.76406e-05
7.05666e-06
2.94301e-05
8.71072e-06
6.80012e-06
4.42304e-06
1.73808e-05
1.04215e-05
1.50776e-05
2.727e-05
9.77519e-06
7.21259e-06
1.84504e-05
4.1903e-06
1.77652e-05
1.62525e-05
2.4703e-05
3.41321e-06
4.74207e-05
9.52959e-06
5.17325e-06
2.39701e-05
1.89852e-05
9.82462e-06
4.04854e-05
2.61571e-05
2.10457e-05
1.85516e-05
4.54089e-06
1.15491e-05
1.61238e-05
5.84413e-05
5.17018e-05
1.34314e-05
2.94363e-05
3.50247e-06
1.96806e-05
2.9117e-05
4.83774e-05
4.48958e-05
1.22181e-05
3.92643e-05