/*--------------------------------*- C++ -*----------------------------------*\
| =========                 |                                                 |
| \\      /  F ield         | OpenFOAM: The Open Source CFD Toolbox           |
|  \\    /   O peration     | Version:  2312                                  |
|   \\  /    A nd           | Website:  www.openfoam.com                      |
|    \\/     M anipulation  |                                                 |
\*---------------------------------------------------------------------------*/
FoamFile
{
    version     2.0;
    format      ascii;
    arch        "LSB;label=32;scalar=64";
    class       volScalarField;
    location    "2/shell";
    object      omega;
}
// * * * * * * * * * * * * * * * * * * * * * * * * * * * * * * * * * * * * * //

dimensions      [0 0 -1 0 0 0 0];

internalField   nonuniform List<scalar> 
7335
(
420.905
1070.04
1542.92
641.703
797.053
965.822
408.701
1316.69
737.987
1716.63
595.12
458.9
1182.4
339.634
549.56
653.789
270.895
747.434
709.781
612.858
633.394
558.072
212.103
1459.31
703.019
702.912
1011.06
192.435
700.5
872.316
194.618
773.728
1801.78
501.522
264.251
706.413
666.107
712.108
306.194
572.948
435.982
630.669
680.974
440.894
815.286
585.596
639.935
700.808
724.88
794.526
206.7
690.246
811.862
333.213
183.752
482.644
291.97
614.973
410.689
351.217
402.159
349.819
382.029
674.988
621.381
651.05
452.555
821.284
247.774
269.616
393.488
802.967
292.19
508.876
701.271
699.09
828.556
604.927
638.167
199.06
246.612
248.323
407.39
930.466
555.642
598.491
321.399
168.457
313.442
719.588
243.254
81.9227
718.703
76.6573
608.775
517.863
223.81
282.786
466.925
611.632
528.419
489.589
282.339
651.126
368.964
197.891
750.699
375.303
320.446
724.281
443.321
578.128
664.66
407.928
586.866
530.826
460.085
692.551
354.608
503.295
653.333
726.214
817.843
722.719
233.7
168.5
404.888
449.466
291.303
731.999
937.606
928.948
1590.86
280.794
293.935
444.532
395.44
255.2
538.437
608.916
606.492
230.512
537.671
585.986
315.591
678.299
624.958
625.979
123.196
868.882
520.883
536.557
591.956
302.448
707.638
256.636
339.606
250.59
233.727
636.811
542.146
622.763
241.137
662.908
636.299
639.998
803.469
633.044
643.974
675.027
679.244
631.909
598.909
540.613
565.106
449.405
1317.12
704.646
709.01
638.075
712.214
330.938
287.949
589.804
492.055
628.906
415.114
541.546
349.767
163.164
364.568
323.192
174.096
945.698
390.411
1023.92
1265.53
593.413
1263.97
284.859
527.699
575.071
767.492
687.086
291.904
994.948
192.018
745.234
569.745
125.92
1850.27
565.497
596.594
1613.63
576.146
1016.03
183.167
677.574
666.226
351.621
696.823
76.2671
693.187
779.01
1008.32
166.095
120.169
1796.26
1534.56
351.105
307.835
534.544
287.77
294.865
164.581
406.205
452.816
311.187
457.75
1209.93
390.845
84.5542
446.108
150.428
253.575
686.978
702.784
1399.7
728.086
108.311
634.925
191.828
238.094
180.046
611.738
858.73
756.604
862.012
630.496
575.782
268.556
457.412
1795.79
427.414
255.023
725.418
230.948
330.051
810.908
722.582
294.118
813.223
730.51
197.464
504.448
810.338
575.384
749.102
173.097
810.419
252.881
231.736
515.632
250.183
601.342
249.916
692.643
523.457
353.579
115.109
387.835
831.64
309.404
292.389
301.637
828.967
260.897
543.79
565.023
179.997
548.186
483.253
331.787
132.015
754.842
292.502
755.657
269.621
82.084
389.215
738.542
359.287
636.308
376.534
646.281
339.063
577.179
275.864
236.166
132.647
693.756
461.131
627.515
620.856
407.185
759.294
433.497
612.551
686.323
188.539
188.441
656.568
408.307
518.416
166.554
1150.89
140.29
687.114
650.99
353.546
314.99
279.029
311.608
419.172
499.121
190.048
255.793
670.313
741.35
529.957
285.792
629.64
652.432
678.851
528.304
699.65
279.544
175.895
156.493
475.737
630.536
602.316
289.001
630.805
799.313
279.983
641.243
521.411
326.629
625.697
196.486
930.218
649.997
275.683
590.544
791.114
914.402
639.127
195.232
479.396
535.62
264.346
232.61
311.552
581.114
239.529
286.871
485.583
240.552
352.605
499.572
526.56
521.82
575.06
558.356
272.286
645.156
322.256
272.328
604.105
698.816
689.668
551.028
604.007
261.822
237.797
639.146
529.624
657.985
622.291
345.814
640.567
583.122
542.2
586.284
156.694
876.995
130.267
545.968
146.66
243.958
745.671
466.595
707.069
728.227
682.308
584.781
244.469
420.907
687.732
68.7657
368.422
710.568
752.607
325.5
609.135
653.757
670.367
309.763
270.335
722.443
361.318
646.081
687.878
122.259
344.677
627.503
761.479
638.478
646.453
802.633
518.968
849.239
649.593
652.452
543.031
561.101
745.373
817.866
631.489
2101.77
539.798
559.621
1498.84
696.754
157.804
245.606
871.697
2233.33
319.106
82.9599
1291.63
638.614
83.835
284.365
554.414
72.4335
431.469
429.556
247.851
493.785
314.107
531.349
737.383
270.283
253.885
569.813
337.201
513.211
56.2143
444.463
299.46
109.666
200.126
1278.38
455.241
497.734
839.739
1449.84
616.565
467.103
1149.62
572.798
355.507
524.017
765.682
546.166
221.287
424.197
473.235
702.215
564.466
516.861
563.005
496.644
211.759
481.876
767.736
807.227
209.68
596.309
615.472
558.071
742.876
541.297
557.398
758.027
499.407
685.434
650.762
314.871
644.307
689.1
611.417
503.573
233.916
1639.9
795.346
648.613
540.33
249.304
798.785
772.839
390.459
691.202
1819.92
717.071
642.243
892.341
527.368
481.128
691.03
698.178
775.62
553.372
389.151
775.607
1729.21
344.691
414.484
313.337
280.997
168.916
316.157
498.576
617.176
2047.11
553.37
533.306
659.488
190.708
467.869
420.03
520.698
224.42
508.535
563.734
739.877
347.87
355.394
1450.14
531.37
330.683
704.519
665.818
440.582
695.6
616.718
186.662
441.13
269.832
287.302
558.584
621.738
296.904
567.991
318.347
571.099
469.352
593.994
716.118
646.081
347.371
658.573
569.977
615.19
997.345
527.684
592.097
580.071
449.786
579.795
194.147
618.687
666.748
661.257
448.387
195.401
449.318
543.975
689.805
294.987
340.695
299.085
138.363
256.958
354.669
638.108
1353.78
509.819
305.106
669.324
1919.4
720.82
268.54
733.597
498.319
703.775
730.028
937.934
117.71
1976.82
973.203
112.955
378.486
674.804
1325.24
228.196
430.709
1134.17
1526.72
722.992
431.881
279.029
695.588
365.337
109.54
702.596
118.657
118.228
418.57
275.547
1431.93
502.836
300.267
287.281
269.19
381.303
1847.69
717.473
1013.3
310.734
369.435
2003.63
263.846
55.3388
293.879
482.217
275.029
279.285
690.063
223.587
268.04
398.804
230.458
568.236
323.635
151.19
733.602
393.439
892.097
171.417
760.878
377.316
609.753
554.19
572.293
446.242
831.395
591.211
577.984
717.082
876.091
163.662
609.038
287.833
665.032
111.669
1421.14
146.233
171.912
352.425
117.944
479.215
498.517
259.315
553.569
165.097
311.278
446.944
219.056
178.414
613.805
139.098
710.814
442.037
511.671
507.325
252.117
190.672
626.032
1199.86
714.024
487.135
283.187
514.479
1956.01
825.029
790.774
442.533
587.225
252.289
1664.49
565.611
326.919
948.529
419.664
496.789
475.666
314.491
564.831
517.003
635.22
2486.36
674.03
720.922
414.96
316.282
722.878
420.669
520.98
299.888
314.674
454.676
568.858
317.264
305.367
548.593
416.107
655.693
574.35
376.447
1338.91
802.157
242.591
540.652
377.285
501.284
545.318
1058.65
2076.96
250.589
639.615
508.405
226.773
367.817
222.487
1292.42
891.115
622.094
741.818
977.959
472.994
231.675
640.332
1682.46
725.023
150.858
416.88
780.626
730.048
623.749
775.089
109.398
1770.48
421.911
736.68
286.213
238.907
726.333
496.236
730.889
161.001
1042
1555.16
1153.52
512.223
630.968
495.084
272.435
569.591
510.079
1492.69
763.905
680.337
586.488
490.223
527.947
117.979
401.153
523.957
502.832
236.885
476.339
358.714
1607.45
1231.33
738.541
838.003
345.787
696.924
464.483
650.833
627.404
346.185
455.121
745.222
1024.73
366.501
782.697
292.404
686.006
244.705
627.549
671.932
802.493
552.472
743.928
541.334
660.25
588
632.319
678.501
1247.56
1006.36
149.487
526.448
473.919
742.564
1084.58
658.398
611.164
619.982
679.88
121.175
1225.23
702.666
566.42
574.182
669.199
525.132
387.374
558.332
319.703
634.764
647.753
665.396
643.885
629.874
548.365
710.837
670.108
257.915
722.331
561.774
326.131
688.832
885.663
685.453
633.088
675.994
642.639
603.848
710.345
254.907
350.136
625.714
593.342
566.205
654.046
514.156
554.784
632.414
163.044
600.771
536.562
449.766
177.803
170.774
266.977
590.759
570.941
674.632
706.316
217.221
188.127
686.568
661.479
656.793
517.538
737.996
480.769
640.752
592.299
549.058
586.161
929.446
1218.13
1820.97
528.346
604.094
582.68
1487.09
633.325
1515.41
796.89
736.265
757.518
109.782
827.188
832.997
452.643
823.764
743.499
264.573
305.298
807.916
705.177
789.389
817.282
514.689
582.595
640.248
516.12
516.07
488.348
613.521
201.028
174.426
633.779
612.742
1343.8
1309.99
671.169
353.581
683.327
660.369
256.639
254.622
264.631
677.906
235.828
240.077
843.497
299.845
738.731
1214.27
331.024
248.941
477.039
435.037
634.338
516.896
529.174
785.193
541.046
689.02
838.239
647.962
329.504
262.852
466.211
791.84
832.603
153.491
174.192
273.818
209.889
711.919
560.361
210.057
733.704
495.142
2242.11
1153.31
781.42
452.882
600.166
380.34
464.617
593.06
599.116
649.516
1472.27
663.105
510.446
708.464
636.637
776.382
660.24
559.457
492.787
579.952
649.979
372.363
287.524
811.396
839.499
196.091
626.649
610.055
446.581
306.673
209.77
709.748
125.055
366.3
515.412
199.556
145.602
369.823
372.319
111.066
371.654
265.872
234.385
217.454
252.489
182.669
496.518
578.371
1109.72
323.25
192.431
418.966
251.519
269.984
242.987
772.528
598.259
545.608
133.335
592.286
125.374
1291.08
764.315
375.151
560.168
655.35
362.596
745.787
405.103
601.538
257.171
697.168
1738.28
449.047
252.528
373.054
313.973
656.125
507.052
394.623
541.571
671.253
383.044
1067.23
408.246
644.2
224.583
412.666
772.272
444.17
657.695
912.373
770.433
226.101
265.215
577.411
905.319
460.47
496.405
556.953
498.905
554.268
537.909
506.447
395.437
602.36
510.178
443.99
523.956
1153.76
853.302
474.974
287.325
769.743
307.331
187.352
354.969
621.228
1000.19
365.314
317.69
675.849
447.642
622.153
2134.2
248.329
436.471
680.585
536.985
234.974
111.201
932.237
591.096
557.438
733.536
362.511
558.464
640.669
647.744
573.485
626.311
614.142
649.777
396.108
547.245
669.322
465.135
634.003
446.917
335.665
406.985
440.063
739.155
450.754
206.254
635.768
737.493
473.776
1216.5
85.9348
415.805
716.414
377.595
248.299
225.965
319.413
929.909
643.645
305.874
220.468
428.285
769.091
530.48
513.611
472.575
580.347
539.715
708.964
413.061
383.758
545.032
232.427
452.41
329.277
285.196
236.014
1358.71
216.781
172.815
684.496
476.914
696.897
681.327
454.849
691.595
585.557
236.181
254.276
204.112
243.279
138.829
319.832
253.968
556.374
630.721
617.455
583.177
674.879
309.719
432.609
420.848
619.083
288.469
349.609
584.863
221.824
274.436
236.364
163.053
364.574
836.835
784.288
781.065
225.851
164.581
292.369
204.925
528.658
376.404
132.802
302.202
787.067
443.781
574.762
728.562
92.7073
849
542.416
414.398
270.859
630.67
628.154
641.804
136.364
547.072
426.057
490.483
486.432
492.109
865.817
233.722
341.127
537.54
687.536
481.298
461.262
211.196
680.792
534.42
553.197
304.704
532.959
725.559
687.22
549.959
539.724
219.76
342.547
604.438
644.003
560.405
681.682
590.824
499.574
517.086
616.384
590.041
659.519
557.268
531.865
680.628
853.265
575.986
353.51
690.967
417.311
608.792
537.271
810.793
544.114
666.811
761.438
611.729
631.461
799.414
649.803
137.789
540.218
237.884
634.415
629.549
639.657
480.555
564.363
635.12
528.172
596.493
688.348
546.316
304.088
532.012
727.279
2166.92
491.854
121.527
531.097
639.996
620.919
517.036
538.468
147.428
255.531
225.866
2013.28
635.112
74.5862
590.623
204.373
422.112
627.626
479.995
453.164
816.394
557.852
569.06
163.113
868.535
357.03
1344.34
300.606
167.693
332.959
711.946
387.057
618.656
794.278
478.491
619.264
357.931
489.473
632.798
363.944
328.238
402.265
367.223
662.122
613.885
356.261
397.743
420.331
481.18
551.482
1043.07
344.439
502.217
506.51
553.346
553.451
1161.55
711.248
546.778
559.636
553.227
348.153
403.982
444.129
396.96
244.18
551.987
110.958
257.202
459.663
520.776
591.01
468.421
461.439
625.8
567.535
602.993
840.948
458.236
408.559
794.44
411.195
427.948
330.842
537.724
460.528
448.857
479.013
655.548
1147.23
315.463
614.889
258.254
626.707
739.608
526.262
639.965
545.168
417.464
306.709
259.687
462.37
1689.18
654.597
460.711
815.366
296.144
404.096
516.03
368.285
291.395
529.145
615.799
450.624
310.779
734.645
294.661
603.177
505.114
508.91
730.801
614.202
84.0811
523.36
78.9744
740.327
502.645
82.0384
1427.31
422.582
526.881
774.655
72.4923
301.355
637.54
645.457
339.654
319.826
310.037
312.9
224.522
350.878
547.467
310.49
773.615
1087.38
255.946
657.775
748.257
734.146
617.445
489.101
483.859
284.781
563.345
238.272
420.718
733.181
669.399
615.234
627.847
726.488
646.731
368.81
799.214
759.956
300.807
781.918
225.568
508.098
570.851
79.8357
150.886
170.661
632.883
1345.72
613.546
260.099
516.272
362.836
606.918
650.481
404.309
690.183
745.196
524.327
554.865
258.21
371.097
236.839
307.641
561.665
282.787
645.271
368.981
607.51
829.444
370.716
419.714
376.777
622.433
552.004
744.114
977.803
702.958
207.393
346.617
625.366
399.495
655.771
569.477
80.9703
252.994
539.371
295.87
627.498
511.911
692.468
196.299
728.265
649.815
857.551
172.617
122.324
128.71
689.902
707.367
270.637
623.444
70.7862
187.322
245.191
460.665
1628.03
221.048
662.922
233.573
464.91
723.801
576.077
851.317
224.138
296.637
401.527
310.279
690.712
609.002
714.394
364.516
632.081
812.276
312.999
365.837
186.314
433.4
714.641
800.904
540.234
1422
588.602
1374
618.624
282.714
321.682
1389.71
355.74
352.782
198.009
798.1
775.233
585.251
363.325
813.899
575.545
834.169
759.379
661.579
562.415
341.375
196.401
688.493
669.684
837.912
260.195
260.283
462.277
635.257
465.858
573.303
69.2655
482.786
575.115
719.548
481.809
261.442
498.805
584.418
92.7521
405.771
203.546
564.769
287.675
379.589
569.863
348.707
760.77
253.89
586.454
398.152
215.758
484.026
496.326
567.985
471.27
298.043
246.491
804.541
175.102
674.491
439.479
140.638
435.433
476.745
400.04
72.5984
458.974
172.322
148.405
663.855
186.546
703.654
620.747
763.313
576.033
534.422
701.593
116.541
759.066
268.118
1179.74
240.286
779.765
466.237
426.944
464.353
299.084
443.231
648.172
440.51
534.005
406.997
107.453
741.949
110.79
657.163
437.541
646.99
274.408
532.419
703.864
542.191
803.12
692.598
643.445
370.52
487.117
693.977
223.58
225.206
670.607
232.645
122.299
487.458
710.548
117.218
361.635
289.156
1856.08
244.364
2168.88
1855.98
646.82
727.978
450.565
86.2543
334.634
575.375
658.959
310.102
1486.78
592.53
596.276
536.689
532.341
83.1585
339.428
335.77
601.536
318.912
279.657
156.663
114.324
533.099
1048.63
468.672
350.488
180.019
642.819
504.175
532.647
513.38
313.113
163.065
470.457
152.324
164.297
845.268
658.094
351.908
831.3
585.206
269.456
179.504
793.987
280.739
705.376
632.404
515.241
562.346
580.658
825.144
210.238
434.209
791.034
659.655
664.396
385.156
445.417
728.937
333.198
257.33
492.136
617.97
304.621
230.4
540.048
240.566
199.21
626.399
704.048
294.251
677.355
259.798
647.003
175.276
606.098
636.931
668.636
288.947
771.454
1339.91
395.069
514.126
749.782
613.958
400.097
311.217
533.468
306.242
169.956
484.579
866.13
1637.92
130.192
253.106
120.075
793.799
779.379
477.068
614.075
349.608
387.508
582.122
707.842
492.681
746.748
366.372
563.47
611.416
177.767
427.056
230.406
436.06
307.188
568.958
443.126
405.19
240.581
525.923
221.154
535.375
1068.37
521.89
695.179
418.889
181.584
196.375
368.887
681.166
704.087
164.638
564.17
755.637
228.617
787.517
161.469
342.779
312.573
77.5054
781.143
546.845
321.048
69.5028
846.245
624.38
524.032
320.849
668.754
1062.12
731.038
150.243
623.892
77.4413
70.4859
781.577
353.453
427.554
246.922
701.914
556.905
179.813
302.807
77.141
364.021
489.244
88.4509
253.744
167.815
526.364
592.348
323.826
321.056
390.49
764.77
214.292
219.215
399.159
376.452
642.642
262.663
159.513
441.267
346.413
392.905
186.41
1253.48
460.905
513.258
151.121
706.493
652.329
420.837
232.243
654.068
130.006
311.511
585.676
290.464
530.616
523.621
286.716
496.793
606.158
594.07
237.55
491.574
304.244
249.471
447.266
355.212
307.073
530.72
156.256
292.53
669.541
290.861
564.446
140.548
157.339
652.352
427.19
71.03
222.618
710.354
246.042
821.743
873.867
128.595
490.404
598.555
607.64
594.292
334.054
414.729
264.276
226.652
548.064
591.322
495.268
563.726
312.614
344.989
275.178
375.034
545.209
543.531
229.712
315.54
452.907
322.692
583.814
293.37
544.095
313.042
776.955
1789.26
81.9163
630.021
73.5162
501.23
284.201
308.863
238.264
162.839
508.164
655.901
329.011
658.157
825.996
480.597
406.465
518.92
595.284
849.458
485.796
280.714
457.311
515.353
597.344
589.928
535.412
420.374
177.694
428.029
618.26
288.391
324.256
173.057
304.169
272.361
380.686
274.857
253.188
162.989
486.479
487.255
315.524
590.841
385.861
132.851
484.846
563.498
398.663
202.563
616.459
280.987
671.684
557.224
222.089
312.719
379.455
66.6583
308.14
146.785
413.952
634.21
109.354
686.719
791.577
321.4
509.703
484.555
519.145
511.812
457.034
706.419
450.258
681.161
860.131
663.776
555.246
164.931
487.31
880.812
154.112
1988.55
479.326
287.783
791.871
496.855
259.501
381.565
467.176
472.057
427.523
711.447
297.192
376.613
188.291
356.256
569.643
427.494
520.061
481.795
490.28
627.498
509.907
282.23
566.694
893.424
355.456
517.44
294.085
393.144
374.817
540.788
1899.81
504.708
411.345
250.221
405.226
769.27
416.236
643.107
391.325
385.858
532.797
398.385
105.783
597.995
405.483
429.371
762.64
266.426
395.45
427.76
444.567
607.328
240.201
468.355
785.268
658.724
481.595
484.474
181.09
640.487
466.963
437.066
754.822
483.341
426.435
238.03
437.077
419.311
358.717
612.083
631.778
631.491
424.059
326.538
912.491
326.813
222.121
399.665
83.0886
452.258
446.754
228.953
407.608
113.185
320.573
610.487
740.269
116.599
296.624
603.481
618.29
819.822
178.505
491.588
677.929
132.702
440.174
647.079
270.269
463.559
365.372
183.941
541.364
246.789
416.593
322.532
341.567
730.925
264.431
669.599
260.593
170.709
563.259
428.024
780.691
375.966
639.81
147.995
537.968
626.765
443.34
429.283
338.404
471.109
226.443
632.483
411.23
328.825
334.439
445.758
528.934
494.309
319.623
554.24
559.217
425.161
93.7116
577.532
443.135
382.722
238.565
94.2947
109.396
178.546
407.278
92.4887
526.88
655.654
494.027
196.242
277.89
791.972
437.407
194.219
752.494
679.29
474.433
321.008
244.077
704.99
238.107
355.519
278.931
656.372
436.857
184.003
228.181
648.194
762.923
572.206
229.895
542.673
70.5022
436.954
376.931
531.21
861.09
162.247
78.7705
1347.81
724.29
410.848
618.805
1532.4
726.377
239.125
259.357
354.089
134.227
746.382
346.826
735.139
295.816
722.737
385.763
700.434
385.066
502.553
1921.94
736.277
314.009
834.178
238.909
506.46
365.581
180.859
176.882
719.832
636.036
403.06
796.82
333.588
377.036
614.098
1016.19
1222.76
448.433
198.74
657.464
249.054
98.6132
505.144
585.972
319.483
362
603.779
545.33
532.648
639.939
388.835
775.374
341.363
374.813
669.223
544.306
681.906
366.216
1489.41
748.675
745.334
351.163
268.818
229.29
702.322
769.692
387.054
757.311
622.365
285.078
401.025
538.874
275.497
421.591
390.472
524.921
86.2183
335.292
417.54
654.386
592.012
272.395
577.029
380.786
609.977
606.449
743.67
809.547
405.226
712.743
803.112
610.667
573.184
507.383
587.319
580.4
261.537
689.246
568.408
2030.51
608.438
549.013
215.056
535.961
2271.55
655.493
528.46
578.218
464.459
517.239
305.475
604.765
404.664
847.701
477.235
499.195
535.647
534.694
358.052
630.903
960.307
659.596
818.565
720.816
532.95
220.334
254.482
258.599
650.145
532.888
907.597
223.269
443.845
299.823
226.093
523.408
294.278
285.727
476.678
235.116
478.091
318.097
469.398
447.117
464.831
641.383
541.216
655.319
1680.58
548.213
665.885
206.641
255.069
532.967
923.539
278.592
760.03
245.929
267.026
720.355
1282.75
1239.24
378.416
640.721
445.006
422.08
318.289
1447.04
453.976
238.583
531.721
742.791
652.796
772.393
505.114
428.257
195.903
494.638
127.802
1673.86
303.56
544.389
653.957
84.0001
88.0311
733.407
405.054
466.867
120.316
769.358
125.919
109.978
90.7088
585.393
128.894
190.804
902.608
273.281
1025.89
615.209
1365.29
526.227
611.437
741.743
507.48
1684.7
432.246
82.6309
545.013
642.717
545.439
512.532
453.347
456.136
599.045
942.564
1239.88
706.054
759.842
664.495
477.151
529.26
562.349
563.128
362.617
547.737
598.578
201.079
460.909
518.413
611.167
295.71
298.482
788.833
107.52
535.155
445.293
608.966
148.803
569.806
557.209
670.51
299.002
85.4723
84.9075
679.298
544.825
186.973
858.187
274.439
663.287
288.962
503.323
600.436
642.797
587.586
610.1
590.552
175.547
553.003
637.321
111.628
686.498
131.608
312.091
267.222
603.145
296.275
302.961
750.772
499.886
640.381
256.203
615.037
309.614
596.664
826.577
410.205
408.044
773.481
1428.78
507.087
393.199
768.217
633.775
803.618
569.346
509.732
367.442
850.821
831.604
764.335
512.434
489.134
813.18
686.416
350.59
365.505
349.048
745.649
286.431
397.645
524.382
1548.31
488.107
318.287
777.299
300.2
833.128
2072.27
597.491
720.043
81.7659
928.294
859.058
76.3987
754.255
226.077
613.563
191.923
865.657
639.503
755.336
908.406
771.1
531.435
573.717
717.435
371.014
500.173
446.234
326.926
873.923
465.653
113.914
189.887
301.245
192.456
113.364
872.525
896.364
654.655
390.7
837.225
274.253
1302.05
385.568
243.19
289.489
764.347
665.109
638.86
678.746
220.061
83.8461
252.389
331.324
376.075
354.056
935.424
325.729
267.177
640.76
501.491
499.984
321.208
326.244
814.824
687.734
377.844
542.475
465.069
452.32
535.416
452.442
345.315
350.455
397.325
316.396
235.885
760.903
636.289
794.208
488.841
438.38
235.74
381.259
366.641
798.139
336.022
742.839
791.848
800.864
806.9
249.129
416.234
181.532
355.732
780.599
671.672
380.394
710.106
255.472
651.418
672.198
657
607.319
236.329
733.931
482.744
394.99
760.906
434.76
640.383
680.205
411.38
786.034
635.675
321.232
352.411
314.999
613.781
624.373
539.529
566.709
711.412
787.413
695.212
603.636
1516.92
474.515
526.445
586.816
480.58
508.216
702.476
456.429
654.027
449.008
524.813
592.328
736.524
554.278
278.455
476.585
58.9213
553.109
147.892
453.307
743.904
319.26
417.473
489.762
507.644
477.26
410.346
520.749
532.86
397.842
715.199
814.995
691.602
174.647
183.802
618.579
734.714
727.383
477.707
460.506
562.803
893.268
482.826
472.232
476.965
572.84
455.914
213.316
754.389
437.852
699.785
540.596
374.602
889.461
396.444
324.562
745.096
736.832
667.673
254.113
656.189
660.75
605.563
535.46
236.803
682.01
728.847
480.963
1506.99
669.76
360.882
292.501
744.411
138.051
253.44
695.434
658.061
642.072
442.26
404.576
368.699
604.347
670.622
805.596
232.157
817.418
789.07
480.72
300.793
819.496
176.43
488.687
478.454
327.486
317.74
427.789
501.824
469.097
697.362
336.281
326.389
239.736
482.209
1370.85
612.575
390.253
297.488
537.579
746.245
422.926
419.117
784.361
350.55
754.8
155.023
90.1273
234.823
606.122
323.517
388.01
756.943
417.477
796.616
311.514
163.011
814.27
697.931
1407.71
805.269
806.079
928.134
700.808
241.069
764.911
802.765
774.567
570.831
600.688
415.306
231.738
737.532
621.715
894.064
259.121
565.434
515.905
326.236
756.385
376.816
629.405
549.898
567.178
631.352
506.062
586.661
360.927
540.632
400.861
169.412
584.743
555.989
336.984
509.115
538.088
252.111
250.114
624.884
834.544
659.859
789.249
864.567
996.122
348.172
721.244
695.304
562.721
721.232
529.986
386.076
688.693
800.152
579.699
332.629
214.744
622.172
376.173
350.464
397.291
686.55
398.477
426.245
262.357
728.519
623.212
285.352
300.722
330.468
661.205
459.073
777.371
437.664
741.627
448.529
394.493
317.772
607.708
523.385
655.789
614.733
324.25
410.108
625.803
646.485
657.688
557.507
688.306
672.046
784.446
320.019
295.277
83.207
484.803
603.097
625.94
543.608
137.606
542.048
571.858
379.825
570.375
461.637
742.719
739.072
716.34
640.182
737.745
565.447
154.88
360.226
631.943
307.811
529.064
596.281
584.963
613.72
961.181
457.281
429.353
646.574
398.888
574.108
90.9696
371.618
433.302
545.591
137.668
496.821
672.897
697.053
357.641
666.633
755.385
494.289
721.389
122.772
636.7
758.437
774.851
259.412
782.111
613.067
447.764
272.346
644.708
668.807
637.669
669.712
382.781
440.856
337.071
742.906
417.361
202.989
307.192
707.189
605.729
640.888
511.002
710.137
701.207
726.73
678.852
652.745
1536.35
827.319
540.297
836.903
551.622
690.852
572.659
532.641
373.41
772.372
542.257
426.714
471.805
1752.33
879.705
527.462
267.473
523.423
263.368
270.477
653.148
204.061
609.031
537.037
278.163
773.475
356.661
357.536
727.836
721.387
256.218
584.061
490.409
344.532
682.382
588.358
622.249
386.625
350.606
81.3096
634.696
572.137
775.057
575.208
76.116
341.908
551.085
328.414
513.678
549.901
413.849
1850.38
537.431
405.83
722.387
426.066
650.099
427.408
824.423
1531.27
726.319
248.345
494.837
770.659
581.924
253.092
258.128
521.921
76.1114
897.63
878.283
714.164
687.011
231.656
706.152
620.845
838.002
385.95
451.096
337.116
695.483
673.934
772.571
720.114
168.542
681.25
166.477
486.767
523.196
705.135
402.09
487.121
160.364
516.322
760.612
860.701
461.019
105.15
822.46
417.998
694.7
734.95
672.222
514.086
778.727
166.172
761.94
726.453
199.87
760.199
719.173
690.657
936.716
102.819
226.036
593.09
625.508
705.912
745.508
652.83
612.104
711.142
703.436
703.176
491.662
743.108
387.156
1046.81
273.189
561.333
1468.07
720.238
255.907
534.374
221.676
618.085
585.548
1065.62
573.487
604.115
323.292
391.719
595.74
418.767
678.013
566.806
468.6
829.068
540.707
1466.36
460.064
101.649
905.491
502.991
490.363
567.879
914.549
506.281
303.736
450.557
528.757
353.169
1042.85
589.321
914.476
2769.65
567.251
597.696
612.675
575.284
521.522
465.154
886.94
560.741
383.554
637.496
990.284
533.593
545.963
321.134
866.126
1022.92
471.691
345.308
403.563
1714.39
470.604
588.547
883.639
225.256
387.413
524.641
451.871
1028.94
1035.17
683.068
317.654
1006.27
332.679
928.375
518.658
438.652
286.003
183.135
513.041
423.716
490.117
206.276
257.635
637.046
271.342
644.148
534.683
311.995
1424.17
599.91
691.261
704.53
635.947
681.95
351.95
665.405
653.649
366.194
926.85
1344.29
585.174
699.12
391.053
195.477
340.216
661.999
196.457
159.91
414.693
643.18
1398.13
524.749
551.998
522.676
45.9083
548.008
233.851
597.054
509.802
441.39
707.092
795.478
343.052
629.677
468.052
602.829
524.142
592.322
532.165
561.527
752.697
591.63
474.509
597.527
1038.31
80.7805
788.848
534.231
357.58
566.122
225.948
539.757
415.63
774.1
341.439
430.516
1589.15
150.378
1565.9
558.165
584.098
992.59
400.928
467.042
129.212
674.859
619.721
645.728
499.558
572.442
576.479
515.394
393.571
677.968
548.255
414.49
199.601
583.728
282.411
561.679
456.727
576.487
501.605
466.488
288.018
526.683
737.783
729.075
410.874
843.033
796.464
419.145
599.103
566.837
568.075
637.488
569.301
710.133
732.531
891.166
531.256
232.989
364.356
626.194
251.542
761.982
708.313
524.62
624.967
569.769
739.52
353.562
130.053
114.377
632.123
591.569
657.261
707.909
216.798
617.188
245.795
202.623
386.108
787.965
734.542
752.435
704.254
474.867
270.488
575.12
499.018
515.054
431.571
815.177
532.887
302.252
544.931
425.887
395.494
331.825
598.014
133.275
478.774
278.444
155.901
446.959
601.103
439.144
548.773
662.575
544.111
375.769
545.594
568.981
572.065
515.647
518.828
630.375
715.587
563.327
822.763
432.322
781.228
1094.22
458.559
685.327
792.765
728.908
317.864
472.143
294.015
584.582
518.356
748.541
538.925
632.945
516.146
529.728
598.141
155.422
490.16
418.318
406.313
669.225
474.414
405.614
750.077
419.802
653.193
722.17
479.818
800.734
710.853
994.969
75.3875
782.355
676.583
781.022
1460.19
86.579
787.886
520.588
596.603
653.695
652.703
696.36
761.824
458.266
408.253
477.984
667.425
426.876
498.389
563.254
580.36
264.073
385.252
515.491
504.991
330.772
535.207
480.206
510.256
273.681
285.794
431.532
474.315
500.836
417.071
731.429
513.597
804.994
417.806
579.173
315.84
266.635
106.46
699.212
443.864
1970.96
971.139
801.36
623.363
392.451
480.345
1818.96
1658.3
360.391
143.235
387.01
1048
502.899
654.485
607.533
658.163
619.47
268.31
334.842
335.611
652.103
473.512
517.503
509.156
631.112
648.825
320.23
508.183
327.995
126.91
417.071
371.292
150.644
367.832
600.822
495.943
330.021
362.095
699.881
510.823
309.914
595.974
655.861
504.143
654.324
180.503
232.154
453.362
262.083
474.904
482.873
637.07
500.008
162.381
755.944
495.463
457.367
438.306
123.31
619.299
261.92
427.367
514.256
790.705
298.334
451.42
91.04
640.079
434.463
454.819
1638.64
237.085
444.952
1424.95
66.9967
559.611
193.019
610.766
249.682
648.366
124.264
658.959
716.663
469.993
691.789
422.878
526.882
482.541
289.472
486.766
240.945
524.113
561.327
516.089
700.861
412.358
793.009
359.075
615.704
472.483
418.944
310.549
703.521
738.858
310.464
438.937
748.621
584.986
312.46
389.091
390.203
693.096
956.699
320.642
749.146
780.231
513.736
491.576
253.349
644.7
253.847
453.824
431.334
525.557
323.79
580.548
534.527
444.986
564.119
526.931
728.29
354.904
222.094
682.396
493.387
473.214
344.035
715.115
505.566
531.858
776.909
401.501
567.108
813.369
516.118
510.855
273.183
57.5452
557.165
751.561
2236.99
797.718
494.459
726.384
360.08
350.576
520.539
407.784
360.158
406.617
337.409
280.721
660.427
399.62
591.654
362.774
647.292
533.916
465.531
147.169
713.65
402.411
347.162
266.6
405.93
283.32
719.805
561.25
607.407
77.9619
311.775
630.718
690.375
768.312
449.139
561.559
456.171
403.103
673.154
683.191
722.128
242.699
732.329
596.588
803.563
650.198
1045.7
625.124
433.151
658.601
672.185
684.331
391.987
608.68
592.088
688.182
391.957
437.699
625.932
1033.42
399.471
339.642
577.126
546.935
2315.51
370.409
537.438
417.798
412.564
733.927
199.53
745.304
513.293
205.549
622.007
710.084
482.926
228.777
688.884
367.581
524.013
393.752
287.464
285.736
526.591
223.684
260.706
78.7636
85.5129
711.643
271.546
977.504
464.726
481.441
74.9992
1509.58
552.144
152.19
642.031
161.71
550.378
836.615
348.453
782.76
1937.97
493.067
1405.53
471.562
784.397
198.706
735.315
849.368
290.42
653.408
782.601
816.279
721.307
336.434
693.461
327.556
757.422
1921.23
620.42
942.768
826.117
579.698
797.958
1427.77
500.514
828.082
728.047
866.349
907.189
760.7
770.939
866.178
549.046
498.357
2161.44
176.656
509.015