/*--------------------------------*- C++ -*----------------------------------*\
| =========                 |                                                 |
| \\      /  F ield         | OpenFOAM: The Open Source CFD Toolbox           |
|  \\    /   O peration     | Version:  2312                                  |
|   \\  /    A nd           | Website:  www.openfoam.com                      |
|    \\/     M anipulation  |                                                 |
\*---------------------------------------------------------------------------*/
FoamFile
{
    version     2.0;
    format      ascii;
    arch        "LSB;label=32;scalar=64";
    class       volScalarField;
    location    "2/shell";
    object      p;
}
// * * * * * * * * * * * * * * * * * * * * * * * * * * * * * * * * * * * * * //

dimensions      [1 -1 -2 0 0 0 0];

internalField   nonuniform List<scalar> 
7335
(
109208
100147
100027
108501
101045
108280
109308
99698.6
100951
100545
108375
108484
109334
108454
109319
108378
109159
108611
108471
109101
109137
108413
109295
102318
108583
108365
107187
109101
108599
109137
108465
109314
109966
110015
109635
108416
108453
108426
108417
108579
108534
108498
108419
108497
108431
108328
108464
108540
108401
108463
108488
108420
108384
108499
109222
108539
109220
108570
109100
108511
108632
108546
108530
108532
109236
108372
108540
108342
108583
108599
108569
108256
108644
108341
110507
109308
108234
109097
109082
109320
108640
108645
108468
109093
109085
109079
108506
109310
108476
108889
108421
109120
109238
109139
109170
108557
108659
108652
108511
108323
109161
109173
108514
108469
109175
109310
108229
109106
109102
108228
109303
108286
108458
108143
108413
108553
109106
108312
109113
108365
109272
108508
108199
109262
108532
108509
108521
108678
108413
109271
109269
100180
100723
108415
108360
108243
108654
108459
108557
108342
108352
109115
108510
108321
108489
108506
108421
108389
109269
109372
108348
108526
109319
108488
108507
108430
108647
109707
108446
108558
108322
108485
108481
108594
108546
108520
108751
108349
108597
108451
108590
108482
108332
108363
108662
108359
109896
108442
108579
109499
108435
108292
109100
108714
108576
108433
108466
107599
108650
108591
108439
108283
108483
109530
108475
108013
111238
108319
109841
108378
108551
108341
110065
108438
108376
111244
109083
108809
107613
109265
109340
108325
108353
106821
108339
107587
109094
109258
107538
109323
108562
109126
108523
108053
109306
109285
108480
107222
109324
108642
108413
108269
108612
108352
108611
108527
108516
108527
108510
106284
108499
109499
109509
108465
108421
109501
108554
109275
108110
108507
108425
108439
108418
108481
108338
107955
108680
108360
108337
108500
108619
108651
109477
108643
108524
108815
108487
108432
109119
109386
108688
108984
108645
108470
108337
109069
108411
109348
108476
108282
108659
108435
109237
108579
108367
108431
108612
109300
108449
108508
108710
107874
108311
108676
108478
108648
108462
108565
108559
108493
108353
108638
109197
108469
108997
108511
108455
108521
109183
109188
108576
108276
109104
108286
108369
108351
109566
108371
108513
109280
108362
108437
108436
108349
108527
108593
108427
108364
108568
108701
108694
108429
108661
108330
108468
109302
108471
108379
108514
108719
108379
108709
108381
109107
108164
108687
108436
108374
108408
108113
108385
108394
108492
108358
108518
108294
108391
108450
108470
108598
108385
108400
108376
108459
108087
108359
108489
108346
108718
108472
108458
108401
108396
108479
108363
108394
108462
108420
108518
108619
108307
108474
108477
108377
108331
108471
108469
108270
109096
108332
108512
108537
108543
108324
108381
108433
108551
109191
108455
108553
108491
110150
108298
108550
108396
108497
108446
108535
108458
108343
108526
106160
108546
108532
108453
108471
109411
108480
108533
108496
108476
108540
108286
108526
108442
108339
108532
108439
108375
109124
109157
108611
108588
109084
108292
108548
108328
108518
108439
108620
108566
108380
108490
108373
108492
108400
108444
108715
108469
108580
108423
109128
108435
109158
109077
109051
109062
108685
108443
108520
109400
109071
108418
109179
108567
109083
109097
109171
109068
108280
109227
109293
109264
109222
109251
109232
109226
109105
109080
108696
108357
109092
108459
108541
109095
109311
108468
108242
108566
109588
108170
109324
108493
109073
106127
108386
108459
108068
109585
108392
108207
107871
108500
108167
108330
108382
108573
109082
108353
108339
108360
108418
108643
108501
108331
108451
108514
108254
109339
108468
108652
108492
108445
107645
107727
108523
108452
108411
108368
108472
108584
98859.4
108553
108584
108458
108405
104774
108743
108377
108360
108389
108445
108381
109290
108419
108545
108371
108361
108839
108311
108432
109365
110702
108756
108317
109126
108829
108090
109267
109071
108375
109262
108616
108708
108458
109132
108549
107720
109059
108434
108536
108600
107995
108411
109090
108509
108457
110040
108347
108338
99941.1
109232
109326
108351
109280
109241
101067
108484
108696
108220
108602
108563
108333
108398
109301
108333
108299
108393
108509
108409
108441
108514
108609
108474
108547
108303
109364
108451
108524
108344
108216
108329
109294
108490
108522
108564
109239
108477
108561
108495
109669
109312
108415
108454
108482
108679
108667
108385
110441
108396
108484
108362
109338
108342
109099
109766
108176
109758
109302
107691
108474
108098
109160
108490
108529
110381
112128
108488
109320
107704
109247
108508
108387
108495
108393
108522
108511
108449
108526
109119
108386
108392
109598
108365
108377
108392
108409
108379
109123
108344
111171
108551
108572
109299
108391
109719
108604
108578
108592
108619
108344
108435
108429
108621
108464
108263
108633
108472
108538
108384
108539
108463
108859
108553
108301
109138
108438
108387
108747
108332
108335
109110
109122
109121
108358
108376
99198.3
109091
109341
109132
108480
109110
108496
108508
108361
108426
108369
108520
108491
108531
108611
108497
109356
108478
108440
108379
108498
108470
108384
108465
108456
110192
108343
108550
108486
108453
109319
108488
109341
109220
108385
109689
109557
108193
108339
108711
108323
108340
108459
108420
108364
108523
108424
109450
108574
109077
108315
108431
108848
108531
108445
108523
108539
108452
108318
108537
108439
108457
108449
107736
108311
108355
111623
107544
108445
107552
108523
108436
108654
109432
109315
108434
108352
108345
108484
108409
108484
109307
108354
108530
108545
109330
108370
108449
108576
110341
108338
109303
108375
108608
108546
108808
109213
108514
107919
108382
108365
108477
108410
108397
108361
108398
108516
108192
108154
109144
108066
108441
107711
108539
108372
108248
110293
108452
108496
108490
110016
108361
108507
109322
108237
109329
108447
108564
108408
100094
107661
108324
108384
109300
108585
108394
108543
108500
108644
108363
109099
110834
108402
109059
108524
108473
108456
108379
108418
109514
107812
108808
108562
108513
108539
108552
100983
106400
108056
109282
109175
108393
108751
107940
108734
108375
108571
99739.6
109111
107904
108409
108511
108502
108546
108547
108591
108511
108315
108453
108558
108452
108356
108406
108562
107919
108510
108405
108514
108354
108345
108561
108829
108384
108346
108366
108594
108353
108362
108607
109107
108392
108476
108536
109233
108447
108527
108358
108445
108563
108532
108601
108413
108439
109135
108352
108350
108378
106382
108411
108425
108378
108354
108380
108465
109881
109290
108457
108482
108362
108512
108138
109308
109239
108428
109149
108563
109087
108325
109275
109037
108669
109113
109223
109074
108795
108361
108691
108571
109245
109242
108842
108471
109023
109007
108540
108332
108546
108538
108544
108624
108425
108499
108519
108545
108332
109111
109111
108372
108655
108554
108537
108616
108594
108585
109174
108624
108606
108350
108711
109058
110272
108671
108665
108156
108388
108543
108342
108397
108808
108586
108380
108833
105540
108410
108594
109165
108950
108967
109290
109079
108614
108509
109110
108445
108518
108349
107833
99266.3
100134
101751
109074
108338
109087
109070
108343
108372
108502
103216
108359
107330
108544
108402
107710
106902
108511
108364
108354
108376
108418
108659
108457
109179
109316
108545
108483
108392
108669
108418
108368
108485
108550
108386
108439
108470
108575
108391
108489
108407
108429
108677
108672
108437
108465
109151
109101
109630
108404
108498
108544
109125
108541
108557
108195
108339
108610
108451
108336
108470
109132
108864
108496
108397
108523
108484
108470
108382
108360
108413
109186
105342
108488
108411
108503
108486
108348
108510
108391
108468
108549
108434
109312
108376
108353
108450
108380
108452
108465
108518
107578
109127
108439
108466
108579
107800
107897
108417
108357
108401
107426
108019
108338
108597
108381
108637
107740
107898
107927
109195
108229
108368
108379
108493
108444
108362
108506
106967
108300
109090
108681
108670
108375
109258
108550
108384
108377
108349
108547
108482
107577
108329
108318
108567
109300
109282
108365
108382
108573
108342
108385
108448
109300
108384
108388
108314
108500
108213
108628
108391
108445
109047
109101
109095
108240
108078
108291
109145
109184
108541
108123
108471
108432
109112
109300
109177
108150
108511
108553
108612
108607
108389
108345
108538
108161
108082
108588
108572
108602
108325
109248
108545
108680
108517
108437
109093
108503
109284
100684
109080
108450
108376
108661
108460
108513
109084
108502
108486
108439
108498
108411
108512
108368
108466
108422
108542
108330
108409
108567
108385
108430
108572
108550
108482
108630
108507
108501
108635
108502
109015
108966
108958
108564
108639
108641
108675
109066
108674
108485
108630
108364
108368
108411
108181
109177
108469
108491
108642
108628
108530
108488
108509
109300
108514
108626
109136
108322
109295
108388
108451
108443
108336
109055
108294
108541
108410
108505
108437
108358
108497
108659
108523
108463
108301
108324
108433
108552
108342
108384
108541
108471
108453
108480
108466
108459
108380
108537
108303
108528
101087
108860
108539
108670
108057
108115
108322
108326
108412
108446
98469.3
108937
108343
108412
108715
108431
109091
108334
108517
108390
108414
108367
108307
108369
108374
108351
108326
108562
108355
108544
108333
108585
109128
108524
108476
108355
108344
108532
108573
108355
108523
108561
108498
107618
108529
109282
108503
108583
109219
108366
109119
108383
109066
108532
108558
108497
108348
108525
112102
108378
108475
108394
109834
108491
109639
108622
108572
108518
108491
108521
108364
108380
108405
108545
108408
108913
108353
108402
108374
108380
108346
109081
106474
108425
108520
108516
108345
108308
109104
108577
108435
108429
108330
108460
108393
108553
108412
108523
108325
109166
108520
108467
108287
108595
108341
108283
108330
108507
108490
108173
108401
108493
108457
109859
108569
108520
108352
108481
108418
108627
108387
111188
108368
108366
108426
108369
108757
108335
108400
108302
108561
108383
108400
108494
101583
109075
108554
108535
108377
108374
108547
108248
108393
108264
108515
109089
109079
109109
108536
108348
108253
108246
108353
108312
109165
108278
109177
108926
108238
109123
109115
108359
108305
109076
109171
109199
108541
108542
108196
109071
108536
108608
109101
108635
108554
109079
109076
108968
109204
108474
108445
108733
108598
109239
108510
109094
109148
108484
108632
108262
108577
109296
108400
108959
108554
108392
108333
109010
108419
108904
108614
108295
108575
109202
109243
108629
108378
109052
108389
108609
108356
108500
108358
108352
108117
109104
108501
108344
108468
108668
108480
108461
108702
109260
108485
109210
109082
108506
109084
108546
108341
108553
108312
108481
108355
109298
109326
108454
109303
108528
108486
108595
108464
109209
108673
108529
108353
108322
108566
108478
108462
108361
108470
109287
108601
108511
108519
108582
108360
108576
108474
109205
108454
109077
108420
108163
108546
104150
108447
108405
108606
108330
109163
108438
108507
108407
109286
108422
109079
108430
108391
108974
108314
109077
108391
108464
108352
108350
109312
108558
109745
108442
110284
108486
108445
108400
109585
108439
108454
108448
108486
108637
108373
108426
107635
108491
108904
108623
101050
108409
108395
108464
100744
100862
108462
108410
109089
107885
108394
108275
108420
109218
108283
108371
108349
108389
109211
108361
108557
109201
108669
109308
108281
108690
108633
108379
108565
108620
108426
108331
108384
108443
108354
108255
107995
108257
108349
109077
109921
108507
108604
108624
108454
109297
108316
109288
109221
108652
108470
108519
108367
108414
108500
108299
108409
108550
108318
107776
108525
108650
108397
109063
108450
108931
108372
108653
108409
108327
108382
108326
107952
107863
108314
108495
108499
108491
108517
108392
108347
108389
109105
108509
109137
108351
108515
108530
108470
109062
108573
108508
108416
108552
108411
108481
108067
108596
108491
109291
109312
109839
108522
109328
108711
108542
109083
108553
109120
108518
109216
108366
108536
109102
108404
108392
108570
108352
109146
108399
108461
108446
109103
108563
108445
109102
108093
107606
108609
108445
108483
108526
108328
108377
108224
108496
108438
107810
108436
108421
108384
108572
109106
108473
109021
108405
108418
108414
108381
108623
108359
108532
109137
109297
108510
108457
108373
108663
108397
108410
108482
108385
108829
108190
108431
108329
108368
108377
108437
107792
108518
108474
108452
108566
108417
108381
108424
108579
108564
108536
108499
108516
108398
108420
99816.5
108381
108613
108639
108352
108534
108362
108300
108327
108465
108553
108461
108029
109183
108606
109096
108749
108405
109088
109076
108385
108423
108532
108352
108449
108383
108615
108370
108361
108573
108630
108631
108272
108331
108571
108621
108455
108590
108511
108572
108550
108047
108606
108354
108378
108479
108506
108583
108371
108548
108476
108377
108377
108659
108425
108439
108584
108589
109142
108930
108556
109130
109129
109118
108344
108571
108514
108373
107983
108438
108445
108411
109141
109128
109142
108190
108369
108442
108384
108370
109150
108340
109124
108445
108384
109110
108642
109298
108546
108555
109089
108248
108375
108479
108442
108529
108381
108492
108544
108666
108513
108627
108557
108416
108606
109125
108528
108413
109164
108398
109099
108280
108519
108351
108512
108325
108481
108645
108525
108521
108419
108317
108505
108329
108514
108509
108370
108436
108444
108474
108392
108408
109155
108475
108573
108688
108513
109140
109202
108441
108277
109158
108637
108542
108494
108732
108382
109085
108315
108428
108445
108345
108524
108344
108404
108452
108345
108356
108211
108364
108505
108485
108506
108347
108328
108496
108640
108709
108362
108405
108388
108406
108314
108397
108607
110001
109187
108318
109192
108538
108452
108511
108655
108471
108436
108345
108388
108011
107958
108508
108615
109262
108573
107970
108681
108487
109290
108295
108407
108546
108427
108611
108466
108471
108479
108449
108414
108498
108360
108390
108639
108390
108658
108486
108435
108312
108414
108468
108391
108464
108324
108336
108328
108421
109254
108383
108539
108371
108449
108474
108452
109254
108507
108488
108328
108362
109278
108486
109888
108374
108571
108163
108295
108007
108348
109316
109313
108449
108885
108388
108322
108477
108245
108938
108472
107081
108255
108585
107880
107768
108597
108596
108645
108605
108557
100943
108600
108550
108464
108570
108433
108522
108223
108513
108364
108355
108267
108676
108528
109332
108467
108297
108487
108494
108491
108550
108331
108378
108342
108439
108326
108364
108274
108585
108253
108287
108339
108277
108510
108363
108610
109181
108742
108410
108240
108209
109086
108522
108487
108052
108081
108573
109201
108247
108474
108464
109148
108420
107717
108614
108362
108443
108375
108359
109310
108439
108487
108444
108488
108437
109721
108384
108524
108507
109110
108388
108511
108540
108346
109100
108545
109544
108474
109092
108417
108315
108528
109127
108535
108566
108395
108521
108397
108367
108399
108308
108379
108436
108317
108403
109253
108357
108451
108572
108385
108394
108434
108467
108524
108416
108624
108463
108338
108470
108341
108377
108438
108478
108397
108288
108590
108333
109621
108327
108315
108346
108490
108312
108365
109206
108327
108524
109101
108379
108648
108352
108641
109285
109114
108587
108512
109107
108290
108547
107615
108426
108592
108094
108538
108414
108728
107109
108376
108559
108563
109067
108678
108647
108393
100914
108369
109084
109096
108489
109430
109107
109089
108499
109266
108545
108590
108324
108000
108654
109267
109257
108556
108610
108335
109174
108647
108425
109325
108463
109105
108875
109160
109081
109237
108594
109297
108345
109103
109090
108562
108602
109799
107811
108619
108354
108655
109552
108468
108391
108412
108654
109565
108334
108621
109086
107749
107926
109101
109085
108369
108547
109113
108333
108436
108408
108550
108375
108296
108387
108383
108667
108505
108479
108350
108373
108365
108408
109124
98730.5
107904
107839
108312
108463
108421
108580
109212
109290
108668
108330
108673
108507
108508
108403
108519
109090
108050
109134
108417
108436
108351
108392
108413
108355
108503
108355
108529
108352
109019
108568
108360
108418
108430
108534
108399
108416
108374
109587
108393
108332
108405
108420
109133
108441
108357
108781
108506
108348
108329
108570
108340
108388
108328
108654
109081
108100
108166
108330
108392
108499
109088
109319
109266
110171
108512
108317
108493
108509
108670
108367
108305
108337
108496
108418
108402
108438
108300
108517
108505
108657
108495
108657
108399
108669
108386
108313
108590
108548
108469
106847
108532
108410
108492
109259
108374
109279
108662
108477
108440
108493
101209
99571.9
98914.8
108339
97283
108433
108431
108522
100637
108194
108473
108548
108510
108374
109285
108447
109281
108686
108361
109105
104186
108652
108604
108393
109245
109258
108640
108385
108538
108509
108610
108514
108503
109257
108452
108477
109214
108461
108533
108897
108526
111061
108284
108448
108480
109108
109183
109073
109103
108064
108451
108207
108120
108462
108582
108540
105932
107893
108441
108356
108505
108383
108235
108491
108502
108414
108436
108573
108460
108289
108294
108395
108518
108534
109219
109301
108568
108575
108482
109211
108325
108555
108593
108476
109205
109194
108376
108399
109219
109128
108573
108355
108537
109292
108555
108373
109301
108401
108353
108439
108565
108344
108479
108499
108480
108348
108454
108319
108699
109227
108826
108359
99452.6
108414
108361
108704
108349
107928
109292
108349
108522
109516
108336
108244
108298
109279
109050
108351
108053
108285
108432
108616
108971
107567
108605
109076
109098
108530
108430
108533
107452
108678
108185
108597
99438.8
108408
108522
108451
108588
108602
110969
108379
109033
109234
108351
108308
109148
108858
109076
108542
108417
108363
108360
108354
108294
108384
108596
108556
109359
108373
108470
108556
108403
109496
108578
108514
108523
108536
108511
108508
108361
108338
109322
108202
108554
108420
109249
109091
108434
108417
108551
108364
108430
108381
108569
109235
109093
108529
108534
108543
108482
108529
108502
108471
108617
108499
108586
108403
108422
109087
109091
109109
108508
109084
108415
108636
108518
108415
108200
108552
108650
109045
108554
108471
108679
108389
108671
108480
108531
109098
108401
108650
108805
108697
108312
108656
108476
108462
108410
108393
108609
108356
108385
108403
108348
108377
108353
108334
108444
108378
108671
108379
108358
108618
108410
108337
108476
109069
108355
108547
108532
108395
108405
108412
108296
108297
108354
100889
108458
108355
100095
108310
108368
108330
108430
108483
101445
108290
108532
108164
108670
108528
108234
108288
108435
108533
109730
108376
108508
108388
108901
108524
108466
108554
108551
108375
108466
108474
107164
108335
108343
108755
108369
108445
108681
108343
108547
108590
109107
108551
108550
109090
108544
108443
108254
108396
109295
109295
108545
108562
108494
108558
108516
108983
108337
108481
108415
108571
108482
108467
108397
108447
108314
108272
108416
108518
109313
108545
100545
108508
108682
108536
108651
108445
108428
108345
108358
108341
108640
108390
108676
108440
108330
109069
108444
108942
109219
108445
108575
109010
109293
109270
108202
108511
108526
108417
108662
108137
109226
108468
108665
109321
108295
109297
108471
108469
108519
108420
108408
108549
108636
108770
108620
108555
109080
109127
108681
108480
109098
108639
108913
108498
108946
108517
108534
108829
108912
110254
109202
108693
108459
108561
108490
108482
108378
108380
108582
108431
108354
108450
108522
109090
108143
108414
108450
108597
108250
108905
108486
108443
108232
108493
108501
108283
108474
108662
108339
108508
109313
108346
108465
108683
109083
108528
108423
108433
109074
108509
108626
108869
109203
109654
108469
108414
108464
108571
108600
108563
108690
108417
108381
108566
108545
108518
108316
108543
108395
108374
108487
108342
108466
108421
108482
108586
108373
108359
108467
108449
108483
108529
109173
108626
108510
108424
108341
108383
108576
109091
108523
108466
109168
109138
108419
108356
108475
109131
108358
108089
109203
109250
109194
109287
108333
108508
108468
108492
108324
108499
108689
108442
109090
108601
108584
108637
107329
108572
108542
108567
109284
108931
109101
109296
108580
108978
108867
109360
108539
108469
108422
108323
108940
109223
108517
108559
109147
109107
108669
100482
108483
108569
100505
108442
109253
109097
109116
109585
108935
108497
108657
108472
108398
108560
108619
108409
108462
108467
108375
109281
108528
108399
108536
108561
108691
108335
108401
108458
108410
109301
109117
108425
108612
108432
109214
109121
109186
108466
108694
108355
108569
108493
108401
109114
108198
108316
109270
109314
107532
108971
108436
109300
108293
108627
108487
108139
108515
108373
108351
108477
108297
109874
108482
108370
108339
108523
108451
108550
108538
108404
108402
108424
108509
108508
109168
108442
108326
108407
108482
109155
108364
108482
108345
108497
108512
108344
109178
108457
109098
108559
108504
108523
108298
108712
110326
108024
108637
108557
108528
108321
108419
108623
108342
109199
109297
109115
108596
108554
108578
108410
108575
108761
108529
108456
108607
108558
108563
108650
108559
108647
108423
109766
108570
108648
108431
108439
108515
109097
109054
109288
109200
109099
109101
108652
108654
108689
108520
108588
108309
108432
108510
108685
108680
108420
108796
108499
108403
108475
109272
109310
108457
108720
108618
108590
108415
108545
100933
108553
101118
109092
108359
108514
107537
109280
108374
101876
108457
108467
108556
108495
100668
108330
107924
108368
108298
108362
108500
109253
108349
108310
108546
108447
108515
108289
110282
109184
109264
108927
109275
108477
108285
109076
108297
108632
108518
108417
108719
107595
109113
106281
108908
108365
108411
108348
108399
108033
108563
109345
108515
108700
108571
108326
108384
108511
108349
108406
107855
109172
108690
108532
108279
108673
109087
108626
108414
108601
108538
108207
107648
107887
100190
108476
109074
108388
109266
108281
108548
108350
108465
108520
108648
108315
108455
108435
108342
108414
108454
108313
108471
109058
108354
108346
108218
108418
108444
108522
108396
108577
108675
108999
109152
109095
108354
108556
108445
108392
108583
108497
108474
108284
108347
109449
108390
108522
108410
109600
108394
108433
108327
108238
108216
100554
108058
108710
108465
107882
108428
108182
108534
108161
108530
108834
108432
108322
108526
109683
109162
108128
108462
108545
108514
108534
109266
108557
108775
108546
108376
109035
109272
100296
108423
108492
112325
108382
108330
108510
100589
108325
108347
108575
108510
108533
108522
108403
100785
108322
108610
108422
108331
108667
108327
108558
108489
108398
109094
108621
108454
108706
108486
108546
108624
109023
108342
108442
108373
108402
108321
108330
108568
109079
109187
108350
108449
108537
108374
109324
108191
108360
109062
108515
108514
109118
108378
108492
108500
108351
108376
108530
108351
108445
108322
108436
109315
108380
109054
108503
109021
109222
108297
108396
108372
108253
108285
108238
108316
109177
108645
108504
108433
108668
108623
108356
108524
108533
108375
108521
108244
108500
108632
108516
109169
108521
108510
108505
108379
108386
108540
108531
108542
108598
108411
109104
108369
108996
109643
108369
108582
108712
109192
108316
107849
108342
109056
108473
109130
108358
108988
108550
108494
108297
109091
108472
108487
108311
108377
108282
109752
108869
108384
108559
108548
108506
108719
108479
107917
109146
108701
108595
109471
106955
109185
108841
107551
108581
108669
108353
108404
108344
108300
108352
108618
108491
108346
108334
108401
108349
108406
108334
109086
109101
108362
108167
109101
108193
108399
108369
108477
108339
108336
108317
108792
109228
108401
108348
108539
108409
108551
108480
108579
108572
109212
109328
109234
108473
108320
108534
109186
109293
109276
109094
108472
107998
108453
108443
108384
108365
108402
108588
108596
108642
108321
108301
108303
108290
108491
108343
108636
107332
108661
109293
108615
109855
109200
108547
108371
108576
108556
109251
108387
108446
109243
108353
108495
108541
108566
108541
108536
108587
108617
108615
108599
108437
108483
108421
108706
108451
108579
108447
108470
108358
108416
108417
108375
108437
108607
108435
109256
109437
108423
108564
100888
108523
108412
99231.5
109187
108366
108513
108423
108457
108516
108517
108358
108551
109313
108562
109296
109283
108302
108386
108569
108474
108355
108322
108514
109001
109291
109086
109278
108334
108518
108333
108676
108495
109115
108444
108455
108631
108309
108387
108376
108389
108361
108252
108384
108654
108386
108337
108497
108428
108305
108444
108464
108389
108323
108254
108377
108339
108498
108514
108490
108474
108391
108586
108375
108387
108525
108411
108780
108331
108555
108609
108494
108337
108466
108159
108471
108562
109680
108423
108768
108870
107742
108380
108394
108500
108289
108440
108473
108473
108466
108327
108387
108334
108532
108339
108406
108363
108354
108431
108527
108611
108511
108668
108674
108536
108682
108372
108552
108357
109114
109121
108446
108357
109323
108370
108363
108295
108310
108346
108373
108568
109320
108651
108855
109461
108353
109622
108449
108453
108384
110219
108375
108372
108364
108562
108945
108105
108455
108337
107570
108182
108626
108341
108401
99770.7
108274
108352
108294
108490
108342
108603
108408
108441
108586
108343
108364
108409
109297
108831
108412
108359
108538
108534
108411
108651
108477
108404
109215
109224
108649
109072
109267
108631
109234
109173
109136
109257
109298
108325
109240
108517
109282
109310
108883
109730
108519
109293
108672
109298
108590
108227
109010
109329
109468
109312
108959
109101
108461
100211
108322
107671
99814.4
100066
110014
109303
108658
109027
102519
108326
108891
109395
109206
109535
109287
108407
108741
108363
109065
109056
109159
108371
108492
108642
109111
108329
108315
108335
109446
109168
108378
108357
108626
108383
108280
108406
108358
108566
108256
108877
109328
108489
108335
108569
108512
108470
108385
108384
108375
108355
108513
108534
108454
108303
108282
108349
108401
108362
108480
107732
108377
108593
108535
108360
101000
108240
108287
99037.7
107961
108358
108477
106894
108294
108308
108274
108541
108435
109151
108455
108337
108371
109106
108432
108332
108355
100219
109273
108346
109058
109176
109102
108324
108508
108925
108386
108493
109177
108391
109122
108573
109130
108521
108402
108567
108436
108421
109230
109291
108328
108347
108303
109109
108448
108229
108576
109234
109170
108417
108757
109184
109185
108384
108289
108380
109116
108469
108194
108132
108223
108410
108477
108466
108576
108475
108416
108361
108351
108410
108348
108388
108066
108418
108379
108450
108391
108404
108350
108410
108367
108468
108308
108652
108128
108529
108307
108323
108479
108519
108508
108288
108623
108121
108435
108570
108518
108527
108358
108486
108358
108333
108496
108489
108418
108464
108456
108879
108544
108489
108420
109761
109150
108434
108401
108144
108492
108520
108337
108457
108482
108389
109147
108412
108411
108760
109077
107852
108511
108532
108532
108609
108494
108416
108386
108449
109277
109064
109180
108543
108446
108138
108418
108377
108437
108335
108361
109308
108557
109091
108388
109105
109142
108442
108365
108624
109185
109306
108536
108499
109300
109310
108509
108036
108698
109177
108664
108516
108631
108352
108544
108560
108540
108398
108401
108459
108388
108531
108496
109209
109122
109084
109317
109275
108373
108339
109288
108436
108486
108513
108236
108293
108522
108356
109107
108408
109281
108154
109275
108730
109052
109194
108584
109211
108422
108445
108456
109174
108624
108409
108528
108396
108693
108467
108216
107707
108267
109252
108263
108469
108651
108229
108637
108663
108557
108390
108522
108509
110873
109114
105840
109068
109821
108438
108287
108441
108583
108636
108442
108670
108660
108513
108402
108631
108539
108540
108540
108506
108552
108266
108615
108451
108606
109132
108580
109149
108501
108488
108553
108361
108406
108557
108548
108564
108572
108340
108356
108354
108587
108345
108563
108535
108516
108541
108621
108332
108288
108389
108384
108563
109147
108602
108579
108457
108369
108387
109241
109177
108535
108606
108707
108357
108365
108271
108567
108318
108545
108583
108493
108466
108454
98183.9
108445
108553
108382
108432
102889
108030
108371
108412
108095
106297
108596
108397
108538
108299
108305
108513
108616
108434
108360
109101
108304
108328
108601
108327
108359
109085
109222
109589
108341
109300
108566
108300
108294
108518
108314
108473
108334
109142
109214
108495
108377
108604
108413
109275
108494
108416
108409
108635
109371
108938
108419
108414
109107
108417
108411
108424
108606
108333
108562
108542
108414
108292
108312
108389
108387
108336
108396
108540
108404
108570
108570
108413
108596
108477
108545
108404
108558
108551
108425
108583
108481
108622
108473
108475
108466
108454
108389
108471
108565
108205
109221
108485
109147
108445
109173
108451
108452
108575
108624
108463
108451
108350
99922.6
108330
108369
108364
108543
108567
108394
108404
108575
108585
108416
108474
108431
108414
108456
108459