/*--------------------------------*- C++ -*----------------------------------*\
| =========                 |                                                 |
| \\      /  F ield         | OpenFOAM: The Open Source CFD Toolbox           |
|  \\    /   O peration     | Version:  2312                                  |
|   \\  /    A nd           | Website:  www.openfoam.com                      |
|    \\/     M anipulation  |                                                 |
\*---------------------------------------------------------------------------*/
FoamFile
{
    version     2.0;
    format      ascii;
    arch        "LSB;label=32;scalar=64";
    class       volScalarField;
    location    "2/shell";
    object      p_rgh;
}
// * * * * * * * * * * * * * * * * * * * * * * * * * * * * * * * * * * * * * //

dimensions      [1 -1 -2 0 0 0 0];

internalField   nonuniform List<scalar> 
7335
(
109193
100131
100051
108567
101063
108316
109198
99699.3
100952
100556
108433
108584
109345
108403
109198
108471
109198
108526
108513
109146
109220
108429
109202
102302
108630
108431
107200
109200
108653
109195
108454
109222
109972
110028
109647
108492
108511
108501
108460
108468
108452
108455
108502
108432
108444
108429
108477
108545
108480
108379
108453
108477
108303
108600
109201
108447
109201
108468
109195
108603
108533
108455
108466
108435
109168
108454
108597
108420
108613
108613
108606
108218
108559
108431
110477
109340
108318
109170
109150
109201
108606
108605
108576
109192
109178
109156
108445
109201
108573
108833
108436
109201
109182
109201
109133
108434
108608
108609
108595
108445
109112
109119
108571
108445
109180
109202
108313
109201
109198
108303
109204
108408
108471
108185
108456
108497
109205
108255
109201
108272
109186
108570
108193
109188
108572
108458
108590
108585
108392
109220
109197
100148
100682
108395
108381
108318
108581
108427
108446
108439
108446
109199
108412
108440
108433
108464
108420
108408
109201
109249
108449
108432
109207
108431
108443
108455
108600
109683
108453
108469
108419
108575
108572
108596
108478
108430
108854
108446
108498
108445
108557
108439
108440
108467
108575
108434
109869
108537
108619
109479
108532
108299
109200
108704
108460
108431
108456
107562
108597
108614
108461
108298
108457
109527
108459
108027
111244
108441
109821
108363
108439
108440
110039
108515
108370
111239
109201
108900
107574
109201
109351
108434
108435
106806
108436
107582
109201
109290
107526
109200
108501
109201
108558
108080
109198
109201
108460
107216
109331
108602
108379
108388
108555
108374
108612
108578
108578
108569
108585
106279
108577
109508
109528
108460
108461
109526
108467
109308
108177
108460
108477
108460
108461
108459
108449
107940
108779
108398
108426
108424
108612
108606
109466
108605
108459
108716
108459
108384
109024
109435
108577
109096
108546
108459
108439
109181
108469
109390
108460
108242
108574
108459
109192
108613
108443
108440
108585
109195
108389
108460
108584
107912
108319
108566
108575
108696
108432
108442
108460
108458
108413
108579
109197
108460
109087
108453
108359
108455
109201
109206
108460
108322
109146
108328
108448
108385
109564
108386
108454
109201
108419
108560
108481
108424
108444
108705
108538
108442
108462
108589
108586
108487
108567
108441
108459
109320
108460
108479
108561
108595
108421
108590
108425
109200
108101
108583
108426
108469
108485
108140
108380
108473
108462
108469
108418
108284
108377
108459
108460
108561
108463
108449
108383
108429
108157
108374
108418
108439
108590
108469
108453
108415
108485
108457
108444
108402
108483
108463
108460
108560
108418
108460
108447
108427
108442
108460
108458
108190
109201
108367
108398
108416
108432
108426
108434
108417
108454
109201
108421
108445
108468
110119
108418
108429
108412
108446
108413
108435
108431
108370
108445
106207
108444
108435
108458
108459
109427
108459
108453
108459
108459
108464
108380
108477
108518
108453
108425
108445
108458
109168
109201
108583
108622
109187
108274
108431
108451
108499
108394
108582
108467
108463
108458
108472
108460
108444
108444
108624
108470
108458
108528
109132
108552
109138
109046
109058
109062
108588
108458
108506
109396
109120
108497
109167
108452
109201
109201
109185
109074
108270
109201
109269
109175
109201
109201
109173
109201
109200
109199
108588
108451
109199
108442
108448
109201
109201
108448
108263
108495
109603
108235
109201
108460
109201
106100
108462
108363
108074
109574
108434
108154
107850
108445
108155
108244
108490
108462
109201
108428
108433
108471
108435
108577
108427
108433
108447
108419
108198
109230
108449
108576
108442
108473
107607
107697
108432
108542
108507
108446
108523
108615
98833.1
108495
108474
108545
108460
104763
108664
108467
108462
108459
108380
108488
109202
108478
108529
108470
108469
108811
108420
108536
109410
110686
108854
108417
109194
108916
108103
109201
109201
108419
109200
108612
108592
108360
109206
108555
107740
109098
108402
108460
108578
108021
108527
109201
108577
108449
110065
108318
108303
99968
109155
109202
108462
109187
109164
101031
108574
108596
108302
108584
108581
108455
108439
109201
108432
108294
108444
108568
108452
108535
108468
108582
108453
108430
108426
109358
108343
108432
108428
108164
108408
109201
108460
108465
108494
109183
108452
108454
108552
109692
109200
108459
108460
108460
108581
108578
108468
110464
108520
108584
108473
109334
108449
109198
109733
108118
109793
109288
107732
108460
108109
109185
108460
108450
110350
112124
108593
109199
107727
109184
108491
108463
108445
108471
108444
108460
108531
108460
109201
108462
108413
109557
108460
108417
108461
108415
108330
109091
108457
111184
108460
108507
109262
108407
109707
108556
108460
108545
108585
108444
108451
108410
108611
108459
108277
108611
108458
108584
108460
108568
108459
108969
108575
108423
109189
108453
108463
108845
108440
108432
109202
109220
109201
108452
108459
99163.2
109201
109329
109201
108457
109193
108460
108412
108455
108412
108464
108459
108591
108611
108613
108457
109392
108459
108434
108449
108556
108532
108459
108449
108446
110216
108451
108554
108598
108356
109302
108478
109337
109142
108430
109713
109555
108220
108397
108679
108399
108260
108356
108388
108417
108411
108470
109459
108567
109177
108391
108386
108794
108564
108393
108573
108460
108358
108419
108460
108390
108484
108369
107763
108433
108424
111614
107571
108435
107588
108602
108332
108569
109426
109287
108430
108447
108438
108601
108452
108595
109313
108399
108458
108445
109351
108438
108435
108489
110354
108462
109202
108458
108507
108581
108800
109247
108460
107966
108457
108459
108588
108461
108472
108455
108483
108459
108170
108125
109128
108137
108439
107758
108456
108466
108351
110282
108552
108420
108437
110004
108463
108460
109199
108332
109200
108433
108466
108451
100064
107675
108365
108390
109201
108488
108474
108460
108456
108547
108431
109180
110840
108452
109155
108610
108523
108436
108461
108455
109401
107801
108706
108465
108492
108574
108536
101019
106430
108036
109201
109156
108489
108798
107947
108730
108406
108592
99772.6
109201
107911
108481
108499
108468
108510
108576
108615
108496
108337
108467
108459
108485
108455
108453
108464
107868
108445
108420
108546
108431
108395
108530
108790
108411
108458
108465
108472
108452
108473
108586
109200
108450
108438
108465
109130
108341
108431
108468
108461
108480
108551
108585
108460
108461
109201
108435
108440
108478
106333
108461
108461
108462
108462
108473
108450
109842
109195
108432
108434
108466
108438
108151
109316
109190
108490
109211
108469
109069
108434
109291
109157
108571
109185
109201
109162
108874
108442
108778
108513
109201
109201
108748
108470
108941
108943
108453
108434
108438
108430
108436
108540
108480
108454
108460
108451
108451
109181
109190
108471
108555
108492
108445
108576
108558
108583
109120
108580
108569
108440
108590
109113
110247
108560
108568
108240
108459
108449
108452
108492
108888
108583
108462
108923
105505
108445
108586
109209
109031
109061
109201
109201
108586
108609
109179
108473
108611
108472
107882
99280.1
100155
101759
109171
108438
109179
109155
108437
108449
108515
103240
108467
107356
108599
108425
107735
106927
108502
108462
108436
108466
108450
108556
108564
109229
109202
108446
108490
108463
108569
108461
108454
108460
108609
108477
108461
108460
108615
108461
108460
108457
108451
108601
108574
108452
108456
109111
109198
109636
108450
108457
108446
109200
108612
108460
108193
108448
108585
108460
108445
108460
109206
108913
108417
108490
108452
108420
108547
108320
108442
108437
109127
105353
108578
108426
108425
108425
108460
108399
108461
108459
108439
108375
109216
108459
108441
108437
108456
108552
108384
108439
107592
109183
108455
108436
108481
107790
107947
108523
108435
108505
107451
107964
108442
108506
108449
108573
107778
107844
107924
109314
108329
108383
108419
108438
108459
108332
108475
106956
108350
109200
108650
108546
108428
109269
108572
108455
108474
108453
108614
108460
107568
108430
108414
108467
109199
109192
108460
108437
108451
108450
108438
108485
109201
108468
108477
108408
108492
108282
108605
108428
108556
108936
109199
109201
108231
108085
108364
109137
109201
108597
108115
108581
108439
109200
109200
109142
108157
108545
108574
108514
108485
108467
108436
108575
108153
108025
108593
108615
108606
108422
109202
108600
108593
108454
108459
109077
108453
109201
100652
109136
108484
108470
108602
108475
108449
109201
108569
108454
108434
108460
108454
108566
108458
108482
108444
108537
108454
108460
108464
108454
108433
108581
108458
108450
108609
108452
108454
108610
108425
108914
108897
108873
108578
108608
108581
108574
109120
108578
108460
108581
108464
108443
108432
108252
109201
108558
108537
108542
108584
108448
108444
108438
109201
108392
108580
109098
108415
109193
108367
108460
108386
108265
109149
108402
108446
108461
108561
108459
108466
108438
108569
108575
108481
108423
108424
108455
108613
108451
108466
108418
108478
108402
108418
108410
108395
108435
108437
108425
108405
101117
108972
108421
108584
107998
108164
108430
108424
108520
108464
98504.3
108997
108452
108434
108616
108469
109201
108429
108455
108449
108429
108467
108400
108463
108474
108444
108445
108477
108434
108462
108424
108462
109134
108584
108460
108448
108464
108438
108458
108459
108459
108613
108602
107632
108432
109201
108431
108581
109149
108461
109192
108453
108955
108425
108469
108459
108426
108612
112108
108424
108460
108357
109811
108414
109619
108721
108457
108424
108414
108430
108464
108335
108456
108462
108459
108886
108405
108460
108316
108463
108440
109164
106497
108376
108411
108405
108428
108404
109203
108583
108480
108519
108422
108400
108336
108592
108351
108566
108424
109200
108611
108566
108386
108472
108260
108217
108452
108599
108420
108186
108471
108601
108580
109873
108608
108442
108445
108595
108515
108548
108467
111184
108347
108455
108448
108468
108863
108426
108453
108413
108606
108358
108415
108394
101589
109128
108440
108632
108367
108314
108439
108293
108373
108374
108443
109176
109197
109185
108456
108445
108342
108339
108476
108426
109201
108359
109201
108855
108339
109201
109180
108442
108404
109107
109201
109201
108457
108464
108217
109201
108460
108610
109201
108584
108458
109200
109174
108988
109201
108503
108544
108778
108487
109161
108415
109200
109099
108576
108608
108309
108478
109205
108453
108853
108448
108462
108346
109122
108459
108989
108612
108406
108451
109201
109201
108610
108456
109072
108447
108584
108478
108608
108457
108449
108152
109194
108419
108452
108504
108569
108404
108437
108579
109163
108435
109144
109200
108415
109196
108608
108417
108609
108426
108381
108475
109244
109199
108461
109198
108440
108582
108485
108482
109201
108594
108420
108378
108445
108457
108508
108447
108468
108514
109314
108613
108460
108460
108494
108469
108555
108458
109201
108460
109200
108521
108194
108615
104186
108456
108313
108484
108438
109145
108460
108448
108458
109200
108530
109201
108525
108461
108964
108281
109199
108461
108460
108427
108469
109322
108461
109776
108446
110322
108454
108413
108364
109626
108383
108390
108461
108413
108520
108449
108373
107649
108445
108813
108526
101071
108460
108452
108454
100714
100833
108583
108432
109201
107934
108359
108369
108360
109201
108376
108450
108472
108501
109201
108344
108458
109201
108559
109201
108405
108575
108604
108428
108615
108497
108435
108440
108460
108452
108286
108329
108050
108202
108364
109201
109915
108458
108506
108515
108461
109190
108420
109201
109201
108587
108460
108460
108475
108461
108486
108422
108504
108456
108427
107837
108460
108568
108419
109086
108430
109019
108291
108603
108327
108342
108302
108449
107990
107876
108260
108460
108439
108460
108452
108462
108467
108413
109205
108445
109194
108452
108466
108574
108591
109117
108492
108457
108460
108449
108461
108460
108135
108526
108460
109192
109200
109851
108460
109334
108717
108562
109163
108451
109201
108441
109176
108463
108614
109122
108461
108445
108459
108442
109201
108454
108457
108447
109201
108615
108460
109201
108165
107630
108500
108461
108455
108445
108428
108501
108310
108434
108460
107778
108460
108461
108421
108460
109199
108561
109038
108427
108460
108505
108397
108630
108469
108421
109126
109198
108623
108447
108456
108551
108473
108491
108404
108455
108888
108205
108446
108433
108443
108460
108445
107838
108458
108448
108474
108444
108460
108481
108448
108461
108614
108453
108462
108509
108388
108427
99855.8
108451
108562
108538
108464
108453
108346
108399
108336
108459
108559
108445
108010
109200
108574
109201
108847
108503
109202
109167
108460
108360
108445
108347
108455
108450
108606
108460
108434
108615
108580
108575
108342
108353
108535
108581
108553
108585
108412
108580
108507
108054
108583
108465
108453
108454
108456
108608
108465
108471
108456
108436
108477
108605
108513
108460
108610
108609
109201
109026
108506
109198
109201
109020
108433
108479
108613
108473
108007
108382
108460
108461
109201
109201
109250
108172
108452
108457
108479
108461
109201
108336
109201
108386
108453
109201
108567
109202
108532
108433
109201
108235
108458
108556
108457
108461
108456
108455
108569
108576
108460
108590
108457
108352
108584
109118
108560
108318
109201
108472
109165
108364
108460
108472
108460
108320
108445
108577
108440
108468
108459
108410
108461
108430
108459
108398
108409
108458
108365
108458
108438
108468
109201
108559
108462
108585
108414
109201
109201
108460
108360
109201
108575
108479
108570
108637
108487
109201
108408
108458
108449
108445
108445
108420
108426
108441
108428
108456
108303
108415
108444
108425
108443
108416
108428
108396
108572
108586
108438
108440
108441
108445
108422
108443
108683
109991
109201
108432
109201
108428
108421
108604
108573
108457
108341
108392
108445
108037
107946
108576
108612
109203
108474
107963
108585
108438
109193
108212
108463
108437
108490
108613
108457
108583
108446
108419
108460
108457
108406
108411
108583
108406
108602
108457
108532
108414
108456
108392
108417
108460
108428
108433
108411
108461
109183
108405
108445
108464
108458
108532
108516
109201
108568
108458
108398
108461
109201
108478
109893
108408
108574
108201
108404
108077
108386
109306
109198
108412
108953
108379
108419
108458
108335
109000
108457
107094
108345
108612
107886
107810
108612
108584
108564
108496
108449
100953
108609
108607
108455
108611
108457
108420
108309
108418
108463
108433
108376
108570
108435
109309
108405
108406
108439
108413
108413
108428
108337
108452
108285
108429
108268
108452
108227
108486
108213
108246
108433
108231
108460
108440
108604
109175
108826
108461
108205
108170
109164
108444
108449
108112
108076
108452
109132
108340
108456
108456
109109
108341
107749
108536
108445
108429
108446
108442
109203
108496
108442
108423
108405
108459
109721
108434
108458
108416
109201
108463
108410
108461
108291
109201
108461
109579
108480
109201
108457
108426
108428
109166
108460
108453
108469
108460
108448
108445
108414
108412
108462
108461
108416
108460
109162
108407
108460
108453
108460
108469
108456
108458
108501
108501
108541
108457
108460
108460
108431
108470
108538
108590
108452
108339
108613
108455
109645
108373
108362
108397
108522
108362
108416
109142
108436
108596
109201
108469
108532
108303
108583
109201
109201
108614
108599
109201
108389
108440
107659
108461
108613
108046
108589
108460
108824
107144
108462
108509
108568
108994
108576
108549
108384
100936
108440
109201
109201
108469
109341
109199
109201
108524
109201
108448
108511
108419
108012
108606
109201
109226
108489
108509
108455
109188
108574
108440
109201
108423
109201
108768
109201
109195
109203
108475
109189
108469
109196
109200
108580
108484
109789
107856
108610
108475
108549
109570
108453
108491
108446
108587
109548
108374
108528
109182
107755
107934
109197
109201
108468
108613
109201
108423
108494
108450
108498
108468
108415
108437
108409
108556
108426
108600
108420
108462
108447
108446
109196
98708.1
107898
107846
108369
108430
108461
108491
109089
109199
108561
108409
108599
108455
108446
108392
108451
109200
108102
109201
108459
108460
108460
108435
108407
108458
108428
108430
108421
108476
109119
108605
108471
108511
108419
108434
108313
108464
108450
109611
108488
108441
108386
108464
109095
108456
108465
108764
108472
108438
108438
108455
108448
108434
108447
108577
109114
108176
108269
108427
108492
108422
109184
109204
109191
110161
108588
108440
108449
108448
108596
108434
108404
108407
108455
108340
108378
108454
108400
108450
108447
108578
108448
108566
108434
108566
108456
108408
108466
108426
108404
106865
108424
108492
108450
109202
108457
109262
108579
108570
108426
108449
101229
99536.2
98947.5
108408
97309.1
108352
108352
108609
100677
108264
108442
108436
108586
108469
109194
108568
109178
108577
108456
109201
104197
108557
108484
108442
109201
109201
108529
108455
108423
108460
108514
108460
108460
109201
108439
108460
109200
108562
108550
108870
108484
111056
108383
108474
108577
109197
109213
109201
109201
108129
108401
108278
108210
108560
108482
108432
105955
107918
108488
108332
108443
108465
108314
108584
108408
108458
108419
108478
108450
108392
108393
108446
108455
108455
109167
109201
108457
108464
108456
109201
108434
108460
108593
108426
109201
109201
108475
108456
109201
109212
108566
108477
108548
109191
108466
108482
109197
108442
108447
108461
108441
108444
108461
108430
108460
108395
108426
108441
108578
109201
108731
108454
99474
108435
108436
108582
108448
107917
109195
108432
108437
109484
108435
108284
108217
109188
108951
108428
108131
108324
108517
108503
109053
107536
108546
109183
109184
108606
108371
108612
107416
108588
108143
108475
99396.1
108508
108606
108366
108531
108710
110975
108342
109095
109201
108372
108373
109201
108942
109200
108465
108460
108433
108438
108467
108361
108506
108496
108458
109240
108334
108374
108447
108453
109372
108464
108459
108457
108458
108457
108460
108449
108289
109217
108254
108464
108460
109274
109195
108458
108460
108486
108463
108460
108478
108614
109201
109200
108448
108454
108449
108545
108450
108450
108449
108541
108384
108612
108459
108536
109208
109199
109193
108398
109195
108469
108567
108480
108459
108250
108579
108567
109151
108577
108557
108592
108464
108572
108579
108440
109210
108456
108760
108902
108589
108261
108565
108597
108457
108460
108515
108612
108425
108482
108412
108467
108486
108475
108435
108453
108489
108586
108448
108481
108598
108448
108460
108589
108951
108413
108457
108449
108430
108463
108468
108407
108419
108476
100903
108495
108445
100086
108403
108464
108445
108529
108372
101441
108384
108538
108111
108578
108540
108241
108399
108415
108438
109724
108467
108458
108464
108953
108554
108590
108547
108440
108300
108591
108361
107209
108419
108466
108715
108480
108460
108596
108439
108487
108470
109197
108436
108427
109201
108435
108535
108348
108440
109200
109201
108446
108460
108440
108447
108438
109025
108420
108593
108515
108478
108485
108438
108472
108426
108428
108394
108438
108442
109220
108580
100587
108441
108588
108460
108547
108461
108434
108460
108449
108441
108594
108460
108596
108452
108444
109187
108439
109066
109095
108345
108524
109108
109201
109179
108288
108448
108543
108362
108597
108212
109130
108588
108562
109201
108237
109312
108470
108599
108557
108448
108505
108581
108536
108887
108580
108660
109201
109201
108603
108476
109201
108533
108821
108431
108900
108455
108456
108928
108955
110216
109135
108569
108478
108610
108444
108557
108492
108503
108484
108433
108437
108440
108604
109118
108157
108423
108530
108504
108258
108821
108586
108471
108283
108449
108437
108395
108437
108562
108422
108451
109201
108446
108446
108572
109115
108532
108436
108440
109183
108623
108646
108948
109322
109680
108459
108498
108506
108460
108498
108440
108566
108470
108490
108455
108461
108457
108440
108450
108445
108444
108470
108424
108384
108407
108434
108463
108395
108365
108409
108419
108377
108639
109202
108707
108585
108366
108322
108442
108533
109146
108571
108579
109190
109179
108456
108446
108485
109195
108469
108135
109194
109199
109201
109182
108433
108439
108491
108459
108421
108410
108566
108430
109185
108650
108472
108535
107368
108456
108444
108615
109201
108932
109200
109198
108469
109004
108882
109325
108593
108589
108482
108398
108947
109201
108435
108615
109157
109201
108576
100460
108445
108610
100494
108519
109170
109129
109201
109548
108825
108571
108583
108572
108456
108459
108566
108453
108521
108476
108450
109180
108428
108450
108486
108606
108577
108360
108445
108473
108428
109191
109200
108458
108574
108467
109142
109184
109167
108495
108803
108433
108507
108516
108480
109203
108278
108439
109182
109206
107552
109086
108462
109201
108393
108560
108458
108132
108456
108357
108459
108457
108305
109910
108500
108470
108352
108455
108457
108457
108455
108449
108428
108467
108418
108430
109201
108451
108421
108482
108428
109201
108331
108504
108389
108515
108419
108414
109221
108469
109198
108499
108421
108426
108373
108609
110315
108085
108577
108448
108484
108416
108428
108575
108433
109201
109211
109134
108545
108543
108614
108505
108476
108877
108603
108567
108608
108601
108535
108585
108473
108608
108513
109748
108470
108574
108514
108513
108419
109201
109098
109264
109220
109181
109201
108730
108542
108681
108617
108570
108379
108532
108460
108766
108631
108460
108715
108577
108389
108464
109201
109201
108472
108722
108659
108468
108426
108474
100935
108454
101152
109195
108472
108501
107544
109201
108464
101893
108538
108433
108457
108449
100683
108428
107886
108451
108422
108404
108410
109170
108425
108356
108437
108361
108564
108408
110294
109129
109201
108886
109181
108388
108409
109031
108229
108609
108436
108496
108590
107591
109207
106259
108919
108423
108464
108445
108444
108119
108456
109272
108416
108576
108472
108317
108445
108412
108388
108472
107834
109123
108577
108605
108275
108555
109185
108718
108460
108585
108439
108287
107655
107878
100223
108581
109039
108355
109204
108388
108446
108366
108450
108400
108584
108405
108451
108450
108430
108409
108452
108412
108419
109073
108449
108422
108157
108476
108440
108442
108471
108600
108563
108924
109169
109182
108454
108462
108460
108462
108494
108454
108456
108354
108459
109490
108451
108448
108487
109606
108507
108449
108437
108328
108283
100538
108066
108600
108479
107847
108444
108263
108425
108258
108438
108724
108446
108411
108440
109656
109201
108134
108478
108464
108445
108615
109179
108456
108679
108462
108321
109020
109201
100269
108443
108446
112316
108465
108425
108460
100579
108447
108466
108465
108439
108415
108401
108353
100762
108420
108519
108461
108432
108597
108424
108455
108453
108507
109196
108585
108551
108759
108564
108460
108738
109134
108412
108445
108431
108446
108435
108427
108464
109171
109121
108454
108455
108457
108462
109202
108129
108460
109102
108448
108415
109225
108461
108460
108460
108446
108458
108464
108474
108460
108430
108458
109201
108456
109161
108604
109104
109155
108387
108421
108480
108355
108396
108307
108322
109120
108579
108406
108522
108588
108606
108455
108458
108420
108383
108457
108314
108468
108585
108417
109118
108424
108548
108405
108429
108442
108428
108431
108438
108521
108430
109071
108452
109078
109656
108444
108476
108802
109153
108307
107899
108351
109082
108377
109095
108448
108965
108454
108396
108420
109201
108377
108405
108393
108473
108385
109728
108926
108459
108461
108428
108558
108817
108463
107913
109201
108799
108511
109405
106940
109201
108927
107521
108469
108645
108465
108477
108457
108394
108435
108567
108439
108421
108437
108425
108448
108415
108404
109154
109189
108397
108261
109187
108280
108421
108393
108388
108434
108426
108387
108681
109189
108523
108418
108458
108460
108460
108460
108473
108470
109241
109342
109240
108402
108390
108424
109221
109316
109201
109201
108584
108006
108535
108499
108444
108440
108455
108581
108518
108548
108435
108394
108403
108402
108443
108443
108554
107297
108563
109201
108582
109819
109201
108461
108461
108464
108462
109200
108486
108461
109201
108444
108502
108446
108445
108459
108458
108596
108585
108531
108505
108483
108564
108461
108596
108460
108602
108463
108460
108467
108460
108521
108469
108559
108583
108533
109201
109401
108512
108600
100919
108458
108509
99273.6
109201
108459
108458
108478
108432
108494
108460
108455
108500
109203
108500
109202
109205
108392
108376
108590
108442
108444
108407
108399
109045
109197
109184
109199
108435
108412
108409
108579
108602
109224
108401
108372
108547
108420
108456
108459
108460
108463
108231
108458
108729
108495
108427
108390
108435
108419
108425
108372
108465
108422
108270
108467
108418
108399
108502
108391
108485
108461
108569
108473
108483
108412
108461
108819
108439
108444
108706
108603
108438
108489
108211
108557
108612
109675
108471
108657
108888
107807
108443
108328
108595
108335
108490
108603
108586
108566
108384
108393
108456
108453
108451
108456
108458
108462
108544
108458
108524
108595
108587
108591
108452
108573
108483
108441
108450
109201
109201
108446
108443
109200
108446
108467
108389
108393
108468
108472
108483
109201
108740
108842
109447
108464
109611
108401
108460
108478
110184
108474
108442
108427
108462
108909
108075
108387
108448
107561
108229
108544
108440
108454
99777.9
108317
108442
108369
108458
108455
108583
108429
108519
108574
108454
108436
108459
109201
108871
108456
108461
108603
108609
108397
108573
108585
108399
109201
109201
108637
109201
109185
108575
109151
109201
109189
109179
109201
108449
109201
108605
109281
109198
108902
109754
108609
109254
108584
109316
108614
108276
109093
109201
109489
109213
109058
109154
108426
100175
108303
107623
99809.1
100053
109992
109191
108598
109125
102542
108425
108990
109362
109330
109515
109177
108507
108764
108453
109141
109051
109199
108465
108537
108617
109191
108441
108430
108377
109464
109201
108468
108460
108515
108483
108402
108448
108466
108456
108375
108789
109319
108570
108305
108461
108459
108460
108482
108495
108458
108445
108570
108435
108460
108415
108358
108423
108441
108455
108383
107702
108474
108579
108413
108469
101035
108361
108386
99050.2
107956
108434
108417
106902
108393
108430
108383
108613
108456
109201
108490
108356
108449
109199
108456
108440
108431
100187
109201
108449
109103
109201
109199
108433
108462
108813
108460
108457
109201
108510
109201
108451
109201
108440
108397
108470
108460
108460
109202
109201
108371
108430
108397
109176
108371
108207
108652
109201
109201
108460
108709
109201
109201
108337
108401
108489
109201
108520
108182
108126
108191
108519
108456
108460
108461
108460
108460
108460
108471
108461
108428
108464
108101
108427
108469
108457
108433
108442
108392
108460
108411
108511
108417
108559
108209
108453
108431
108418
108594
108473
108450
108390
108568
108155
108500
108599
108614
108435
108428
108431
108440
108433
108445
108547
108367
108519
108435
108855
108507
108595
108517
109790
109199
108495
108382
108076
108399
108420
108446
108411
108388
108459
109201
108462
108461
108832
109201
107872
108415
108439
108447
108487
108455
108469
108395
108491
109241
109139
109127
108490
108461
108157
108460
108485
108534
108435
108458
109195
108531
109196
108338
109201
109201
108407
108423
108533
109201
109196
108413
108403
109200
109200
108546
107997
108584
109140
108606
108407
108537
108446
108451
108613
108457
108448
108445
108454
108458
108438
108443
109201
109201
109163
109200
109201
108473
108443
109200
108443
108529
108514
108285
108392
108551
108467
109201
108488
109202
108239
109201
108751
109121
109201
108472
109286
108462
108460
108440
109133
108607
108448
108500
108471
108603
108452
108311
107755
108360
109201
108353
108414
108608
108335
108605
108585
108463
108430
108459
108444
110868
109189
105886
109134
109858
108460
108385
108454
108472
108567
108553
108591
108589
108427
108445
108557
108458
108454
108460
108460
108459
108205
108602
108460
108509
109201
108471
109201
108460
108460
108457
108483
108421
108458
108457
108468
108475
108449
108453
108448
108491
108444
108454
108458
108524
108460
108612
108432
108412
108447
108454
108452
109201
108586
108575
108380
108464
108457
109201
109195
108590
108594
108584
108434
108405
108342
108456
108244
108422
108490
108417
108409
108415
98178
108452
108455
108310
108442
102866
107965
108452
108523
108163
106327
108596
108493
108460
108422
108403
108414
108493
108477
108429
109186
108406
108398
108481
108423
108437
109121
109272
109613
108436
109300
108531
108400
108393
108424
108354
108461
108429
109133
109201
108460
108473
108577
108490
109200
108451
108460
108460
108581
109377
108981
108459
108458
109055
108404
108462
108459
108495
108430
108602
108506
108461
108330
108362
108441
108433
108446
108450
108439
108493
108472
108627
108457
108580
108460
108443
108461
108476
108462
108332
108525
108460
108540
108503
108460
108460
108460
108437
108460
108467
108174
109150
108459
109117
108460
109197
108460
108461
108469
108560
108458
108464
108462
99899.4
108428
108463
108476
108461
108469
108445
108455
108464
108510
108456
108459
108453
108454
108442
108443