/*--------------------------------*- C++ -*----------------------------------*\
| =========                 |                                                 |
| \\      /  F ield         | OpenFOAM: The Open Source CFD Toolbox           |
|  \\    /   O peration     | Version:  2312                                  |
|   \\  /    A nd           | Website:  www.openfoam.com                      |
|    \\/     M anipulation  |                                                 |
\*---------------------------------------------------------------------------*/
FoamFile
{
    version     2.0;
    format      ascii;
    arch        "LSB;label=32;scalar=64";
    class       surfaceScalarField;
    location    "2/shell";
    object      phi;
}
// * * * * * * * * * * * * * * * * * * * * * * * * * * * * * * * * * * * * * //

dimensions      [1 0 -1 0 0 0 0];

oriented        oriented;

internalField   nonuniform List<scalar> 
12211
(
0.00336379
-0.00240754
-0.000956257
0.00461516
-0.00490563
0.00325777
-0.0029673
-0.00775067
0.00209395
0.00565672
0.00036412
-0.00036412
-0.0094703
0.01801
-0.0162903
0.00137206
-0.00129308
0.000596617
-0.0006756
0.000725818
0.00100887
-0.00120557
-0.000529112
-0.00363719
-0.00345185
-0.00357128
-0.00694302
-0.00797987
0.0112857
-0.00615662
-0.00631643
0.00795033
-0.00126429
-0.00668603
0.000100065
0.000843749
-0.000943814
0.000282568
0.000363819
-0.000267393
-0.000378993
0.00179326
0.00167601
-0.00346927
0.000222093
-0.00033993
0.000117837
0.00314933
-0.0031033
-4.60339e-05
0.0011789
-0.000775917
0.000556512
-0.000959496
0.0103746
-0.0106071
-0.00402254
0.00425506
0.00858585
-0.00324918
-0.00533667
-0.00820559
-6.73437e-05
0.00875415
-0.000481224
-0.00224813
0.00584148
-0.00359335
-0.000740067
0.00795026
-0.0072102
0.000168477
-0.000322306
0.000153829
0.0193108
-0.0104435
-0.0120081
0.00314073
-0.00937063
0.000360134
0.0090105
0.00410274
0.00930922
-0.013412
-0.0113548
0.00906865
-0.00155408
0.00384026
-0.000136625
-8.20129e-05
0.000218638
0.000315952
-0.00968658
0.00506751
-0.0061777
-0.000822077
0.00193226
3.64025e-06
0.000508434
-0.000512074
0.00499439
-0.00531027
-0.0092988
0.00961468
0.00435624
-0.00449924
0.000143003
-0.00575477
0.000717093
-0.0182361
0.0232738
0.017848
-0.0215481
0.00410107
-0.000400884
0.0141055
0.0019743
-0.0143324
-0.00174738
0.00114938
-0.00732554
0.00617616
-0.0141458
0.00116068
0.0141345
0.000145547
-0.000829954
0.000684407
0.00557455
-0.000478301
-0.00570718
0.000610928
-0.000173383
0.000597708
-0.000151086
-0.000273239
-0.0040627
0.00458145
-0.00470037
0.00418163
0.0086311
0.000966057
-0.00959716
-0.000612291
0.000438908
-0.00152565
0.00142683
9.88216e-05
0.00927865
-0.000567506
-0.00931451
0.000603362
-0.00884083
-0.00229537
0.0111362
-0.0158539
0.0113522
0.00450172
-0.00849183
-0.00096334
0.00945516
0.00581284
-0.000298649
-0.00551419
0.000120142
-0.000664458
0.000544316
0.000361014
-0.00874177
0.00838075
-0.000236469
-0.00582814
0.00606461
0.000947702
-0.00225468
-0.000759743
0.00206669
4.24185e-06
2.35833e-05
-2.78252e-05
-0.000368004
0.00325134
-0.00288334
-1.4658e-06
7.69916e-06
-6.23336e-06
-0.00755828
0.00104264
0.00738018
-0.000864543
-0.000595476
0.000387045
0.000208431
0.00156088
-0.000613212
-0.00254576
0.00221838
0.000327379
0.00254995
-0.00208894
-0.000461007
0.00208828
-0.00372739
0.0016391
-0.00859932
0.00315608
0.00869085
-0.00324761
-0.00273014
0.000255174
0.00244297
3.19966e-05
0.00859664
-2.93975e-05
-0.00856724
0.00177983
-5.01434e-05
-0.00172969
0.00184734
0.000677412
-0.00252475
-0.000273886
0.000164126
0.000109759
0.000272687
-0.000105463
-0.000167224
0.000517425
0.000981943
-0.00149937
-0.00845245
0.00104542
0.000116048
0.00729098
-0.00155323
0.00190038
-0.000347148
-0.00493506
0.000312333
0.00462272
0.00673567
0.00444135
-0.011177
0.00626483
0.0110069
-0.0172718
-0.00318387
-0.00454429
0.00772816
-0.000582275
0.00190665
-0.00132437
0.00211493
-0.00152621
-0.000588723
4.71263e-05
-4.71263e-05
0.000625152
-0.000427191
-0.000197961
0.000487752
0.0001374
-0.00303009
0.00020152
0.00282857
-0.000681725
0.000498814
0.000182911
-0.00118945
-0.000373235
0.00156268
0.000746089
0.00136884
-0.00191794
0.000854515
0.00106342
8.8204e-07
4.62442e-05
0.0026775
-0.00253501
-0.000142494
-0.0120191
-0.00739578
0.0085042
0.0109107
-0.00174761
0.0017943
0.00136411
-0.0014108
0.000170982
-0.000134812
-1.62151e-06
-3.45483e-05
-0.00244883
-0.000318751
3.74348e-05
-6.46937e-05
4.60073e-05
-3.59688e-05
5.46552e-05
0.000160762
0.000537403
-0.000987634
0.000289469
0.00663069
-0.000487492
-0.00614319
-0.000403885
-6.04849e-05
0.00046437
-0.000403885
-0.000272266
-0.00298059
0.00325285
-0.00633552
0.00695458
-0.000619055
-0.000866588
0.00102735
-0.000956296
0.000312841
-0.000223133
0.000195334
0.00133689
-0.001467
-6.5229e-05
0.00612717
-0.0065393
0.0129146
-0.0125024
-0.00105625
0.000701298
-0.00317665
0.0035316
1.06607e-05
-0.000417669
0.00034971
5.72985e-05
-0.0101035
-0.000566927
0.0106705
-1.42394e-05
-1.33039e-05
2.75434e-05
0.000404956
-0.000529548
0.000124592
-0.000539068
-0.00956447
0.000949457
0.00100492
-0.00195438
0.008568
-0.00128086
-0.00728714
0.0114991
-0.0116611
0.000161989
0.00518527
0.000929776
-0.00611504
0.0114316
-0.0114578
-0.000371685
0.000397825
0.00124522
0.00480087
-0.00604609
0.000111598
-0.00188797
-0.000404483
0.00218085
-0.00453795
0.01476
-0.0102221
-1.42394e-05
-0.0071375
0.00527343
-0.00498905
0.00685312
-0.000888867
-0.00301338
0.00211585
0.0017864
9.8122e-05
0.000265998
0.00190581
5.11321e-05
-0.00195694
0.00527033
-0.00646111
-0.00686635
0.00805713
-0.000435312
-0.000369111
0.000804422
0.000102975
0.000195817
-1.44966e-05
-0.000284295
-0.000279559
0.00178712
-0.000632355
0.000144858
0.000487497
0.000297403
0.00178489
-0.0020823
0.000436615
-0.000118976
-0.00276647
0.00252559
-0.00227042
0.00552519
-0.00979013
-0.00611065
-0.0031271
0.000616055
-0.00285424
-0.000734144
0.00297232
-0.000152926
0.00246113
-0.00230821
-0.000964854
0.00551528
-0.00455042
-8.6732e-06
-0.000487497
0.00049617
-0.00118239
-1.66188e-05
-1.7045e-05
0.00121606
0.0070646
-0.00331015
-0.00645302
0.00269858
-0.00717609
0.00691572
0.00026037
-0.00688811
-0.000287987
-0.000438412
0.000199168
0.000239245
-0.00563956
0.00387689
0.00176267
-0.00692407
0.000634124
0.00628994
2.27162e-06
-0.00178832
0.00178605
0.000771886
0.0120704
-0.0128423
0.0158794
-0.00882657
-0.00705281
-0.00405419
-0.00552161
0.0095758
0.000176236
-8.85096e-06
-0.000167385
0.00961809
-0.0148719
0.00525379
-0.00510845
0.00451183
0.000596614
-0.00391629
-0.0017318
0.00564809
-0.00185871
0.0010505
0.00243652
-0.00162831
0.00245062
-0.000153943
-0.00229667
-0.0110094
0.0117813
-0.000251844
-0.00100581
0.00125765
0.000630505
-0.000947664
0.000317159
-0.0229945
0.00448277
-0.00396187
0.0224736
-0.000727197
4.38213e-05
0.000683375
-0.00602609
0.00257655
0.00344953
-0.00622606
0.000990395
0.00523566
-1.45211e-05
-0.000486275
0.000500796
-0.00169081
0.00170177
8.91075e-05
0.0105389
0.00534048
0.00216656
-0.00670125
0.00453469
0.0062367
0.000311373
-0.00654807
-0.0113364
0.0115197
0.00124866
-0.00143201
0.00664327
-0.00713994
0.000496674
0.000984276
0.00610391
-0.00708819
-0.000544746
0.0171886
-0.01747
0.000826071
-0.0141977
0.00775069
0.00644704
0.0089062
-0.00941491
0.00050871
-0.000334627
0.000355022
0.00662288
0.000695815
-0.000814485
0.00392149
-0.00380282
-0.000335406
0.000293739
4.16673e-05
-0.000378328
0.00325031
-0.00287199
0.00771258
-0.00609723
-0.00161535
0.00804133
-0.0077386
-0.000302728
-0.0133901
0.0135786
0.000171644
0.0115338
-0.0114984
0.00767715
0.00825501
-0.000213688
-0.000118215
-0.00373841
0.00385663
0.00016559
0.000254825
-0.000420414
0.00766422
-0.0168444
0.0144435
-0.00526335
-0.00181086
-0.00108311
0.00289397
0.00989229
7.92275e-05
-0.00997152
-0.000680578
0.000999397
-0.000318819
0.00271815
0.00550899
-0.00822714
-0.000228254
0.000858758
0.000196417
-0.000265265
5.73681e-05
1.148e-05
0.000609782
1.66446e-05
-0.000626427
0.000108497
0.00334729
-0.00345578
0.000449134
-7.83991e-05
-0.000370735
-0.00355222
0.00439868
-0.00689591
0.00604945
0.000481973
-0.000518991
-0.000643561
-0.00124155
-0.00181432
0.00305588
0.00228141
-0.000298566
-0.00566121
0.00367836
0.00693906
-0.00633906
-0.000600003
0.0107661
-0.00674783
-0.00445743
0.000439159
-0.0019085
0.00399685
-0.00394353
0.00185518
-0.00592079
-0.000337146
0.000463147
0.00579479
0.00547638
-0.00520927
-0.00026711
0.0148164
-0.00536026
-0.00945615
0.00898859
-0.00982415
0.000835556
-0.00190597
-2.53819e-06
-0.00308957
0.000442698
0.00264687
8.99676e-05
-0.000110247
0.000235279
-0.000215
0.00390266
-0.0101747
-0.00404264
0.0103147
-0.00686594
0.0069106
0.00753831
-0.00758297
0.000166806
9.43002e-06
-3.79505e-06
0.000286363
0.00674569
-0.00677167
-0.000772837
0.000798814
0.000123573
0.00781545
-0.00793902
-0.000700664
-0.0120815
-0.00242318
0.0152053
0.000101245
0.00664444
-0.00250565
0.00020436
0.00230129
1.29148e-05
-3.23277e-05
1.94129e-05
-0.00159815
-0.00110547
0.00270362
0.00655082
-0.000539421
-0.00601139
0.000431786
0.000540388
-0.000972174
-0.0132232
-0.0114498
0.0133884
0.0112846
-2.13172e-06
4.94672e-05
-4.89713e-05
1.63586e-06
0.00531592
0.0151293
-0.00517654
-0.0152687
-0.00510265
0.00246281
0.00263984
0.000816922
-0.000816922
-0.000248637
3.05955e-05
0.000218041
-0.000127064
3.68518e-06
0.000123379
-0.00161356
0.00102712
0.000586439
0.000360023
-0.000481271
-0.000466393
-0.000651819
0.000554926
-0.00208828
0.00218517
-0.00762332
0.00153885
0.00608448
0.00196911
0.00098975
-0.000859121
-0.00209974
0.00268898
-0.000180136
-0.00250884
0.000373311
4.17296e-06
-0.000430671
5.31871e-05
-0.000723631
-6.96664e-05
0.000793298
-0.000723631
-0.000119652
0.00109092
-0.00140658
-0.000910688
0.000187057
-0.00490199
0.00153171
0.0099211
-0.000843749
-6.69397e-05
-0.000151629
0.00558715
-0.00789481
0.00598029
-0.00519484
0.00710936
0.000204221
-0.000134409
-6.98121e-05
-0.00017166
0.000771284
-0.000732724
0.000133099
-0.00599214
-0.00649879
0.00459612
0.0129024
0.00030657
-0.0132089
0.00218026
0.00816463
0.00260226
-0.0107669
6.03077e-05
8.55297e-05
-8.13306e-05
-6.45068e-05
0.0091286
-0.00962629
0.00049769
0.000330266
-0.000232182
-9.8084e-05
0.000601609
0.000197324
-0.000798933
-0.000276336
0.000221226
0.000263495
-0.000208386
-0.000293128
0.000296901
-0.00887673
0.00887296
-0.00179699
0.00871778
-0.0074602
-0.000755204
0.00884658
-0.00809138
0.0019872
-0.000615142
0.0111447
0.000809328
-0.011954
-0.00652601
-0.000905443
0.00743145
0.00027686
-0.00027686
-0.000241463
0.000278161
-3.66979e-05
0.000679223
-0.00460146
0.00392224
-1.17131e-05
-0.00022975
-0.000595852
-0.000136621
0.000732473
-0.011085
0.0105063
0.000578678
-0.000694189
0.000417853
-0.00410521
0.00422128
-0.000337829
0.00022176
-0.00995796
0.00127629
0.00868167
-0.00686602
-0.00574414
0.0126102
-0.00220733
0.00223457
-0.00157636
0.00154913
0.00461998
0.00404082
-0.00438469
-0.00427612
-0.00127356
-0.00981143
-0.000247612
-0.000330595
0.000578207
0.000605144
0.00481014
-0.00541529
-0.0036854
0.00467372
-0.0062329
0.00524458
0.00181523
0.0061351
-0.0121241
0.00525805
-0.000308412
0.000282026
0.00684196
-0.01013
0.003288
-0.00133091
-9.3753e-05
0.000234267
0.00119039
-0.000233377
-0.000536217
0.000769594
-0.0025611
0.00215255
0.000408546
-0.00022419
-0.000338818
0.000289119
0.00184567
0.0111143
0.000147298
-0.00189491
-0.013245
0.00525452
0.013318
-0.00532758
6.53066e-05
0.00192794
-0.000280789
-0.00171246
0.00241832
-0.000625065
-0.000175794
0.000128518
4.7276e-05
-0.000912355
9.81323e-05
0.000814223
-0.00347299
-0.0086901
0.0121631
-5.57314e-05
0.00475417
-0.00458994
-0.00266619
0.00255936
0.00176439
-0.00165756
7.40265e-05
0.00150482
-0.00157885
-0.0101763
-0.00387198
0.00830417
-0.000114856
0.00125242
-0.00113757
0.000637744
0.00642685
0.00269182
-0.00600197
0.000212438
5.10569e-05
0.000524996
0.00610371
-0.000493604
-5.04172e-05
7.58682e-05
-2.54511e-05
0.00237772
-0.00160559
-0.000772133
-0.000197747
0.00031627
-0.000118523
-0.0104415
-0.000992184
0.00801756
0.00341614
0.000997322
-5.10656e-05
-0.000946257
0.00929317
-0.000262952
-0.00903022
0.000281687
0.00106918
-0.000353548
-5.2385e-05
9.05774e-05
-3.81924e-05
0.00180168
0.000168083
-0.00196976
0.0102455
-0.00927207
-0.000973459
0.00546142
-0.0057404
0.00374833
-0.00346936
-0.00627865
-0.00596709
0.00404015
0.00513119
0.000330231
0.0121211
-0.00077977
-0.0113413
0.00287065
-0.00302357
-0.00134096
-0.0021155
0.00785514
-0.00330855
-0.00216054
0.0032394
0.00222969
-0.00102279
0.00130447
0.000141337
-1.34804e-05
-0.000127857
0.00802694
-0.00720018
-0.000826767
0.00219523
-0.00531841
0.00312318
0.00905046
0.000257491
-0.00930795
0.0120025
0.000483913
-0.000365361
0.00281294
-0.00229209
-0.000520853
-0.0135069
-0.000535046
0.0132868
-0.00222536
0.00156811
-0.00168608
0.00234333
-0.00063131
0.00857108
-0.00793977
0.010269
-0.00046272
0.000439247
0.00150468
4.40484e-05
-0.000122377
-0.00142635
3.60603e-05
0.00147118
-2.55748e-06
-0.000664411
0.00805831
0.000633041
0.000669233
-0.00224836
0.00157913
0.00153425
-0.00139041
0.00824816
-0.00839201
0.000592855
-0.000484483
-0.000108372
0.0110103
-0.00565031
0.00062026
0.000406725
-0.000189168
-0.000217557
0.00506386
-0.000128806
-0.00493505
-0.0119194
0.00471922
0.000804176
-0.000760127
0.00291541
0.000299404
-0.00321481
0.000840236
-0.00235907
0.00218911
0.000169962
8.49043e-05
5.92238e-05
-0.000144128
-0.00652566
-0.000659504
0.00718516
-9.219e-05
1.53831e-05
0.00154798
-0.00035082
-0.000926215
0.00127703
-0.00669098
0.00772705
-0.00103607
-4.03651e-05
-0.000552046
0.00174358
-0.00629418
-0.00178708
9.97809e-06
0.00177711
0.00132446
-0.00875946
0.00743501
0.00998303
-0.0104272
0.000444156
0.000379255
-0.00900433
-0.000371464
0.00899654
0.0048647
-0.000393858
-0.00447085
0.00165599
0.000354094
-0.00201008
-0.00330614
0.00326237
-0.00174332
-9.52557e-05
-0.000464964
6.31782e-05
0.000497042
-0.000131169
-0.000308751
0.00043992
0.00202117
0.000213964
-0.00223514
-0.00827311
0.00872122
-0.000448112
-0.00787062
0.0082586
-0.000387976
-0.00241834
0.00242831
-0.00904853
0.0115607
-0.00251213
-0.00981951
0.00235222
0.00746729
0.00337777
-0.00333497
0.00677958
-0.00637277
-0.000406807
-0.000333989
0.00495549
-0.0046215
0.000840236
0.0055879
0.0042858
-0.0098737
-4.91654e-05
-0.000543754
0.000592919
0.00361463
-0.00383233
0.000217698
-0.00979178
0.00970514
-0.000555785
0.000642421
-0.000293672
0.000216322
7.73494e-05
-0.00797815
0.000240845
0.0077373
0.00192292
-0.000205162
-0.00171776
0.00319485
0.000419778
0.0116316
-0.0114256
-0.000205964
1.60285e-05
0.000451972
-0.000468001
0.000333939
-0.00326088
0.00292694
0.00860979
0.000693738
-0.00858298
-0.000720538
0.000449683
-0.000321811
-0.000421545
-0.000141966
-0.000733589
0.000875555
-0.000229926
-0.00212915
-0.00888649
-0.000196566
0.00888456
0.000198502
0.000195922
-0.000404308
0.000740544
-0.00029086
0.00791216
-0.00644906
-0.00798877
5.81485e-05
-0.000140157
0.000166912
-0.00329323
0.000117564
0.00317567
-0.00468172
0.00631296
-0.00163124
0.00615391
0.00047678
-0.000564975
0.00560541
-0.00552793
-0.00189781
0.00194823
-0.0100715
0.0100211
0.00679776
-0.0017316
-0.00506616
0.00151824
-0.00152439
6.14921e-06
-0.00566004
0.00224091
0.00341914
-4.05981e-06
4.05981e-06
0.00157987
-0.00151485
2.97887e-05
-9.48085e-05
0.00839049
-0.0061526
-0.00789793
0.0126269
-0.011662
-0.000964902
0.0115678
-0.000801664
0.00613959
-0.00702784
0.000888246
0.00756598
-0.00833425
0.000768279
-0.00189613
0.00186584
0.00254332
-0.00251304
-0.000295971
-0.00168164
0.000277739
0.00169987
-0.00963428
-0.000134831
0.00976911
-0.00526498
0.0029226
0.00234237
0.0028677
0.0125539
-0.00279473
0.00818928
-0.00318626
-0.00500302
-0.00295439
0.00279805
0.000156339
-0.0133152
0.00828662
0.00502856
0.00842512
-0.00751037
-0.000914749
-0.000832783
0.000954841
0.00830306
-0.000125611
0.00032969
-0.00929021
0.00908613
2.59588e-05
0.000228028
-0.000253987
-0.00771094
0.00901364
-0.00260754
0.00130484
-1.6096e-05
0.00047682
-0.000434765
-0.00655574
0.00572296
-0.000292586
1.35877e-05
0.000278999
0.000262677
0.000192276
-0.00831487
0.00812259
0.000551568
-0.00709612
-0.000665214
0.00720977
0.0152889
0.00140944
-0.0151354
-0.0015629
-0.0122162
0.000362816
0.0122144
0.000389937
0.0110103
-0.0114002
-0.00894144
0.00847867
0.00270368
0.00105714
8.25043e-05
-0.00113964
0.00188699
-0.00177198
0.000452093
-0.000567102
0.00179334
-0.000940811
-0.000852534
-3.58469e-05
-1.69651e-06
-1.05615e-05
4.81049e-05
3.42476e-05
4.32136e-06
-3.85689e-05
-0.011849
-0.00428647
0.0161355
0.00218888
-0.00020903
-0.00281026
0.000830413
-0.00012869
0.00573446
-0.000116681
-0.00548909
-0.000550949
-0.00911165
0.00852077
0.000590872
0.00617336
0.00299367
-0.00916703
0.00355436
-0.00115027
-0.00344618
0.00104209
0.000367802
-0.000745336
0.00045002
-7.24862e-05
0.0127504
-0.0122933
-0.000457063
-0.000997961
0.00130531
-0.000307349
0.0065818
0.000229536
0.00483432
-0.000167145
7.47979e-05
9.23475e-05
0.000228233
0.00153787
-0.0017661
-0.0120081
0.0110432
-0.00137663
-0.00995015
0.0113268
0.00248463
0.000678957
0.00616033
-0.00683929
0.0077782
-0.000824031
0.0009062
-0.00786037
0.00735455
-0.00217057
-0.00658908
0.00140509
-0.0031428
0.010921
-0.00798174
-0.00131045
0.00929219
-0.0087283
0.00843577
-0.00768921
-0.0060441
-0.00147523
0.00669277
0.000826555
0.00462771
0.00530831
-0.00993602
0.00173322
0.00338456
0.00945907
-0.0118869
0.00242782
0.00328595
2.89278e-05
-0.00331488
-7.02542e-05
0.000884509
-0.000814255
0.00127918
0.00732501
-0.00860419
0.00255554
0.00326871
-0.00279636
-0.00302789
-0.00995246
0.000279374
0.00967309
-6.76875e-05
6.72476e-05
4.39915e-07
0.000261628
-0.000349096
0.000492424
-0.00414849
0.00402715
0.000121341
0.00397291
2.36851e-06
-0.00397528
-0.00277585
0.00264716
8.11536e-05
-7.6504e-05
-4.6496e-06
0.000883286
-0.000115588
-0.000767699
-0.00104746
0.00128466
-0.000237207
3.82276e-05
6.79191e-05
-0.000106147
6.99632e-06
-6.99632e-06
-0.00120842
0.00296853
-0.00176011
7.36093e-05
-7.40482e-05
-1.02688e-06
-0.000940413
0.000344937
0.000185146
6.49271e-05
-0.000250073
0.00135316
-0.000221348
-0.00125419
-0.00523903
-0.000448191
0.00530889
4.12027e-06
0.000671256
-0.000771808
9.64317e-05
-0.00857138
0.000201025
0.00844248
-7.21306e-05
0.00176051
0.0109899
-0.000563828
0.000372807
-8.75665e-05
0.000278587
-0.00028558
-0.00027878
0.000314068
0.000250292
0.000301557
-0.00887293
0.00457072
-0.000495134
-0.00407558
0.00159589
0.00708793
-0.00119988
-0.00748394
0.00417684
-0.0069189
0.00119549
-0.00137805
0.00710147
-0.000797344
0.000511763
0.000114678
-0.000114154
0.000101284
-0.000101807
-6.76875e-05
-0.00638612
-0.0119118
0.0175972
-0.00194373
0.00224282
-0.000299086
-0.0051157
0.00197292
0.00314278
-0.000122791
0.00287729
-0.0027545
0.00416504
0.00431124
0.0101327
-0.000219341
-0.00991335
0.00611573
-0.00677523
-0.00734511
-0.000870272
0.00182925
6.1775e-05
0.00665717
-0.00671895
0.000798019
-0.00564038
0.000771097
0.00407127
0.00654317
0.00136899
-0.0130235
-0.000911376
0.0139349
-0.000670522
0.00279886
-0.00212834
9.82574e-05
0.000228369
-0.000163529
-0.000163097
-0.000265549
0.00358113
-0.00331558
-0.00490764
-0.00031547
0.00495756
0.0100368
-0.0100708
0.000406262
-0.000372253
0.00113887
0.00668177
-0.00782064
-0.000119527
0.000119527
-0.00511827
-0.00109375
0.00621202
-0.00552631
0.000618668
-5.38527e-05
-0.000613179
0.000667032
0.00430047
-0.00360701
-0.000693464
-0.0085424
0.00520077
0.0101836
0.00972433
-0.0100642
-0.000727569
0.000585603
-0.000199986
8.04588e-05
0.00767144
-5.14788e-05
-0.00759411
-2.58556e-05
-0.00767398
0.00638539
0.00128858
-0.000110843
-0.00908278
-0.00183611
0.00885221
-0.00478674
-0.00918375
-0.0127883
0.000572115
-0.00154908
-0.00294697
0.00449605
-0.000284906
-0.0116345
3.8021e-05
-3.80214e-05
0.00535259
0.0139583
0.00899063
0.000368157
-0.00935879
-0.000751181
0.000761603
-0.00642899
0.00641856
0.00133637
-0.00499527
0.0036589
-0.000211648
0.000167906
-0.00045296
0.000496703
-0.00062672
-0.0131301
0.00331328
-0.00984026
0.00882786
0.00101241
0.00301952
0.000129814
0.00030119
-0.00255679
0.0022556
-0.000436411
0.00046914
1.62775e-06
-3.43566e-05
-0.000231253
-0.00960901
-0.00161749
0.0143711
-0.0127536
-0.000445008
0.00139446
-0.0014011
-0.00714581
0.0085469
0.00500265
0.00197976
-0.00630319
0.0133603
-0.0134078
0.000427443
-0.000380015
-0.000795733
0.00781268
-0.00784243
0.000825482
-0.00289129
-0.0170215
0.013165
-0.000419373
0.00039436
0.0061646
-0.0048227
0.00460999
0.0104274
-0.0139004
-0.023285
0.00466441
0.00371668
0.0149039
0.00631172
0.00236865
-0.00868037
-0.00537894
0.00495957
0.000381323
0.000978834
-0.00136016
0.00898993
-0.00394765
-0.00504227
-0.00453868
-0.0044924
0.00779912
0.00123196
-1.05329e-06
1.05329e-06
0.000188225
0.000163827
0.00235674
-0.00252057
-0.000583445
0.000659466
-7.60219e-05
-0.000138329
0.000483509
2.81305e-05
-0.00181326
0.00247704
-0.000663784
0.00894753
-0.00836221
0.00352243
-0.00410776
0.00235074
-0.00196941
0.00234035
-0.00220691
-0.000133441
0.00734731
-0.0059304
0.000128617
-0.00154553
0.00134917
0.000500618
-0.00184978
-0.00243643
0.0085636
0.000148197
-0.000272794
0.000694938
-0.000570341
0.00332988
0.00278387
-0.0035045
-0.00260925
-4.40375e-05
-0.00111
-0.00900234
0.0101564
0.00488429
0.000744254
-0.00562855
-0.000225777
0.000231843
-0.000358087
0.000352022
0.00435628
-0.00420624
-0.00015004
-0.00260885
-0.000809132
0.00336758
5.03991e-05
-0.0096238
0.0158886
0.00227744
0.000807212
-0.00308466
0.0031987
-0.000921259
-0.00288645
-0.00373427
0.000323134
-0.000337514
1.43802e-05
-0.000399304
-0.00039804
-0.00894024
0.00890189
-0.000107691
0.000146036
0.000145874
-0.000870198
-0.00106593
0.000728418
-0.00631523
0.0154279
-0.00911267
1.94434e-06
0.000486275
-0.00048822
-0.00118932
5.5381e-05
0.00135453
-0.000220593
0.00589821
0.000554685
-0.000888818
-0.00556408
-0.00037164
-0.000210865
-0.000427914
0.00101042
0.000119604
-0.000890642
0.00080166
-3.06216e-05
-0.0039766
-0.00455034
0.00852695
0.0107168
-0.0104835
-0.000233243
-0.000544786
0.000266006
-0.00525779
0.000248738
0.00500905
-0.00289407
0.0011678
-0.0071992
0.0060314
0.000928734
0.00397735
-0.000549805
0.0107669
0.00111769
0.000195287
0.00805973
0.00523502
-2.18615e-05
5.6109e-05
0.0102229
-0.000239883
-0.00817216
0.0087523
-0.000580146
0.000734324
0.00814781
-0.00888213
-0.0108535
-0.00273262
0.0128001
0.00078603
0.00220641
-0.00934391
0.0033546
-0.00361397
0.00895581
-0.00869644
0.00665419
-0.00674786
9.36767e-05
0.00728448
-0.00652708
-0.00113471
0.000377317
0.00849986
0.000179138
0.000441699
-0.000276723
0.0100579
-0.00856165
-0.000371751
0.0089334
-0.00179598
-0.00854175
0.00177608
0.00181564
-0.00103535
-0.00198871
-0.00108253
0.00110484
-2.23104e-05
0.000870324
-0.00425603
0.00338571
-0.00123696
-0.00421707
0.00545403
-0.016507
-0.00487538
0.0156276
-0.000718742
-0.000225348
0.000862264
-0.00104448
0.000182213
-0.000581576
0.000141631
0.000439946
5.91765e-05
-0.000226322
0.00126097
-0.00161065
0.000402799
0.00120786
0.000338957
0.0081708
-0.00850975
-0.00288281
0.0111915
-0.000996655
-0.00731206
0.00691827
-0.00454025
-0.00237802
0.000189081
-0.0014494
0.00126031
-0.000334035
-0.00979627
0.000316483
0.00981382
0.000416492
-0.00013013
-0.000532708
0.0128614
-0.0123287
-0.000221657
-0.00224999
-0.0140364
0.0162864
0.00589779
-0.00727335
0.00137556
0.0182252
-0.0119662
-0.00625896
-0.000318207
-0.000878018
0.000749427
0.000446797
0.000612038
0.000289338
-0.000901376
-0.000146358
-0.000178453
0.00142486
0.000915494
0.00931931
0.00169103
0.000118363
-0.00277641
0.00147563
0.00130077
-0.0114126
0.00346862
0.00794395
0.00183765
3.86349e-05
-0.00187628
-0.00131628
3.95448e-05
0.00146581
-0.000671596
0.00139741
-0.000127018
-0.0159314
0.0114761
0.00458227
-6.99977e-06
0.000534657
-0.000527658
0.0122783
-0.0170247
0.00474643
0.00142584
-0.000236534
-0.00118931
-0.000942888
0.00151244
-0.000569556
0.0102956
-0.00156677
-0.00872885
-0.000683696
-0.00209271
0.000145508
-0.000175881
4.30922e-05
-1.27192e-05
0.000814871
0.00948075
-0.000165274
0.000260938
-9.56642e-05
1.25512e-05
-1.46829e-05
-0.000176968
-0.0011465
0.00132347
-0.00178918
-0.000106947
0.00492604
0.00304724
-0.000276455
0.0026433
-0.00254382
0.000108027
0.00297121
-0.000983842
-0.000184514
0.000170395
0.00181611
4.97356e-05
-0.00553687
0.000810532
0.00472634
0.00180319
-0.00356165
0.000247473
0.00151098
0.01231
0.000508535
-0.0128186
0.0035042
0.000618757
-0.00412296
-0.000769537
0.000240127
0.000895188
-0.000365778
0.00163677
0.00401911
-0.00356761
0.0010351
-1.83097e-05
-0.00101679
-0.00281957
0.0018662
0.00276947
-0.00393326
0.00429332
0.00885294
0.00197266
-0.000795616
0.000792066
-0.00294235
7.83582e-06
0.00293452
-0.00125902
0.00323168
0.000157733
0.000509902
-0.000299834
0.0122879
3.82447e-05
-1.61055e-05
-0.000899977
-0.00110657
0.000871601
0.00113495
0.00258602
-0.000326836
0.000234342
-0.00249353
-0.000165882
0.000165882
-0.000112489
0.0011836
0.00277522
-0.00451087
-8.94834e-05
0.000366343
0.000227519
0.000578576
-0.00021324
-0.000797395
0.00114081
-0.000343418
-6.01648e-05
-0.000795111
0.000855276
0.0069717
-0.0020617
0.000271973
-4.44544e-05
-0.00651616
0.00709147
0.00814381
-0.00871912
-0.000571758
-0.000937659
0.000962823
0.000546595
0.00877845
-0.00813611
-0.000642342
-0.00386562
0.000373442
-0.000588347
0.00408053
0.00126055
-0.00895771
0.00769716
0.00218818
-0.000301188
-0.00527461
0.00572509
-0.000450481
0.00685102
0.000412051
-0.00687313
0.00620796
0.000438055
-0.00664601
-0.00134197
-0.00273699
0.00407896
-0.000294885
0.000449541
0.00964917
-0.00980382
1.24688e-06
1.13043e-05
0.00720439
-0.000353368
-0.000513778
7.73673e-05
0.0129006
-0.0192158
-1.80545e-05
5.87963e-05
0.000119301
-0.000160043
0.00147991
1.24688e-06
-2.02832e-05
-0.000696094
0.000716377
0.000889508
-0.00077791
-0.000141603
4.01181e-05
0.000101485
0.00260661
-0.00567221
0.0030656
0.000200069
-0.0002168
0.00279591
-0.00277918
-0.00104195
-0.00248642
0.00108535
0.00244302
0.00242712
-2.948e-05
-0.00245781
5.78303e-05
-0.00033188
0.00027405
-0.0011197
-0.000329698
-0.000201626
0.000201626
-0.000771732
0.000751449
0.0123544
0.00550011
-0.0178545
-4.43385e-05
1.85911e-05
0.000604324
0.000883605
-0.000196128
-0.000687477
0.00279014
0.000263559
-0.0030537
0.000686774
-0.00515821
0.00447144
-0.00418605
0.00422827
-0.000130297
0.000599437
-0.00126176
-0.000780762
0.00126331
0.000779211
-0.00115528
0.0014647
-0.000309415
-0.00450767
-0.00548825
0.00999592
-0.000232464
0.0125204
-0.0036113
0.00567797
-0.00206666
0.00033699
-0.000974352
-0.000482335
0.000640221
-0.00482518
0.00418496
0.000409269
7.22296e-06
-0.00350529
0.00330013
-0.000873711
0.000425374
0.00103634
0.000632717
-0.00166905
0.00104136
0.0102146
-0.00112325
0.0194499
-0.00982455
-0.00857071
-0.00105463
0.00011239
0.00593706
0.0050561
-0.00455408
-0.00361148
-0.000529723
0.00414121
-0.00249511
0.00253763
-4.25252e-05
-0.00357227
0.00393048
-0.000358219
-0.00577073
-0.000678324
-0.00517494
0.00073897
0.00507619
-0.00168054
0.00197794
0.00669246
-0.00145209
-0.00524038
-0.0049286
0.00487447
0.0017461
-0.00169197
-0.00222793
0.0123198
-0.0100919
0.00569954
0.0117887
-0.00594102
0.00643063
0.000726303
0.00120186
-0.00192816
0.00423998
-0.00055812
-0.00368186
0.00326586
-0.00327038
-0.00870482
0.0122523
-0.00354752
-0.000569055
-0.00120349
0.000124211
0.00164833
-0.00128948
-0.000140135
0.00136087
6.87497e-05
2.58612e-05
-0.00207696
0.00125371
0.000837805
-0.000604364
-0.000233441
-0.00194733
0.00467068
-0.00455207
0.00182872
0.00121551
-0.0083024
0.00814892
-0.00106203
0.000232347
0.000605458
0.00328779
3.94772e-05
-6.14073e-05
0.00580741
-0.00734835
0.00154093
-0.00154516
0.00143951
-0.00477667
0.00488231
0.0100887
-0.0059589
0.000926264
-0.000733072
0.00701813
-0.00628505
0.00369056
-0.00026227
-0.00365822
0.00130118
0.000536472
0.00330147
0.00925008
-0.00179511
0.00193426
-0.000139149
0.0118846
-0.00858308
0.000566672
-0.00134643
0.000779731
0.00291782
0.00602972
8.3726e-05
-0.000419132
-3.08743e-05
-0.0108226
-0.00010064
0.00050991
0.00103028
-0.00094447
-8.58074e-05
0.00687846
-0.000294563
-0.0065839
-0.00467682
-0.000258235
0.00142122
-0.00116839
8.4158e-05
0.00139708
-0.00156446
0.000167384
5.01885e-05
5.47567e-05
0.00812176
0.000207333
-0.0133165
0.00498738
0.00134981
-0.00264289
0.00194417
0.00746653
-0.00765019
0.00314876
-0.0117481
0.00160838
0.000284852
0.000472565
-0.000221685
-0.000535732
0.000962627
-0.0017748
-0.000982931
0.00542067
-0.00822729
0.00280661
-0.00367059
0.0116653
0.00884812
0.00118872
0.000117755
-0.000187254
-0.00161177
0.000407488
0.00172864
-0.000524358
0.0125054
-0.0133642
0.00667163
0.00615044
0.0127237
-0.00847041
-0.0104038
0.00336544
0.00999212
-0.0133576
0.000101109
-5.35577e-06
-9.22621e-05
-3.49114e-06
-0.00304506
0.00492607
-0.00126897
-0.00232409
0.000345585
0.00197851
-0.00469687
0.00073707
0.0043156
-0.000355803
0.000208432
-0.000332683
0.00138457
-0.000518382
-0.000233355
0.000751737
-0.0135127
-0.000701886
0.0142146
-0.000347106
0.000292537
-0.00323297
0.00328754
0.0135508
0.000620624
-0.0141715
-6.24183e-06
0.000306546
-0.000300304
0.0100213
0.00110878
-0.0155875
-0.00156882
0.00908454
-0.00751549
-2.22579e-07
0.000232191
-0.000568789
0.000336598
-0.00376812
0.00663818
-0.00287007
-0.0102065
0.0100774
0.000129038
0.00433402
0.00962226
-0.00534164
-0.00861463
-0.000430003
-9.00339e-05
0.000520037
-0.00036738
0.00376456
-0.00339718
-0.00609761
0.00628579
0.00422061
-0.00440879
0.00232039
-0.0112016
-0.000866535
0.00974772
0.00138153
0.00580386
-0.00718539
0.00241186
-0.0134213
0.00658307
-0.000556624
-0.00602645
-0.00468301
-0.0178849
0.000503849
0.00297535
-0.0034792
-0.000115326
-6.04683e-05
-0.000222093
5.83638e-05
0.000163729
-0.00412869
-0.00196892
-0.00101169
0.00104003
0.00190592
-0.00157134
0.00357541
-0.00200407
0.00142879
0.000209249
-0.00163804
-0.00260954
-0.00466273
0.00655079
-0.000205542
0.00290483
0.00108407
-0.000487451
0.000207564
0.000928582
-4.49236e-05
0.000238188
-0.00112185
-0.00318205
-0.00314327
0.00632532
0.00229964
-0.00555401
-0.0028004
0.00605476
-0.00790871
8.45101e-05
0.0078242
-0.00998105
0.000346769
-0.0021102
0.00209137
1.88289e-05
-0.00119155
0.00349119
0.00168695
-0.00189165