/*--------------------------------*- C++ -*----------------------------------*\
| =========                 |                                                 |
| \\      /  F ield         | OpenFOAM: The Open Source CFD Toolbox           |
|  \\    /   O peration     | Version:  2312                                  |
|   \\  /    A nd           | Website:  www.openfoam.com                      |
|    \\/     M anipulation  |                                                 |
\*---------------------------------------------------------------------------*/
FoamFile
{
    version     2.0;
    format      ascii;
    arch        "LSB;label=32;scalar=64";
    class       volScalarField;
    location    "2/shell";
    object      T;
}
// * * * * * * * * * * * * * * * * * * * * * * * * * * * * * * * * * * * * * //

dimensions      [0 0 0 1 0 0 0];

internalField   nonuniform List<scalar> 
7335
(
299.597
305.215
303.552
315.593
303.557
293.708
301.085
304.399
304.443
303.722
299.863
303.592
297.66
306.272
298.579
299.198
294.699
294.817
297.053
296.956
297.609
300.469
307.841
305.522
296.694
293.094
305.306
307.547
296.565
294.333
306.784
295.079
293.789
293.15
293.15
296.172
297.847
296.281
308.653
299.075
296.905
297.856
296.936
299.385
296.401
299.084
297.632
297.285
296.167
294.461
306.092
297.437
294.302
305.394
273.899
302.387
281.05
298.418
304.429
306.63
306
301.957
306.993
297.825
298.624
297.976
305.387
294.082
311.947
303.31
303.324
293.041
309.281
302.252
293.271
293.15
294.16
300.724
298.475
291.926
310.069
311.452
304.447
297.725
299.116
298.476
305.619
291.04
305.538
295.061
306.35
287.224
298.767
282.371
299.132
300.836
302.561
302.104
302.561
298.073
299.746
300.291
306.644
298.444
297.901
301.776
293.719
294.759
305.503
293.45
300.019
299.69
298.212
305.838
298.523
302.322
299.895
293.141
293.818
303.017
298.482
314.972
306.841
295.694
310.016
303.007
303.695
300.668
306.288
298.333
297.946
305.038
304.742
305.232
307.846
304.489
300.435
306.919
300.258
300.056
299.61
304.32
302.183
298.546
306.099
298.007
297.399
298.688
304.162
293.861
300.368
302.188
298.649
303.758
297.919
305.092
308.163
293.15
309.026
298.828
301.912
312.802
306.07
297.513
298.974
298.809
293.827
299.153
297.726
297.112
296.829
299.092
298.557
299.637
314.089
304.895
293.15
295.322
296.537
293.15
295.399
306.98
306.278
297.368
299.44
298.75
297.43
303.646
308.77
307.051
301.376
307.279
304.26
293.15
298.172
306.194
293.109
298.502
293.124
305.872
299.498
300.49
293.15
296.734
307.478
293.418
300.973
294.519
303.835
305.931
297.636
299.565
300.236
304.685
300.037
306.731
278.839
297.353
306.011
300.725
296.296
278.747
297.06
304.166
298.001
306.74
301.972
293.406
297.626
307.729
305.924
300.53
307.059
307.072
305.824
303.354
303.052
308.369
303.359
306.198
303.487
293.15
293.15
304.393
304.343
293.15
297.11
293.15
293.311
295.077
298.054
308.008
303.118
302.456
297.556
306.502
294.02
293.718
298.227
300.602
302.012
311.566
293.611
313.221
304.733
294.035
300.625
304.797
294.405
293.332
307.278
294.051
293.797
302.201
300.825
295.145
300.237
293.237
303.745
293.481
305.983
304.142
299.222
307.736
298.496
306.134
296.548
299.508
306.005
303.534
301.794
293.412
306.07
307.391
308.214
293.091
307.644
300.259
300.916
305.806
299.666
317.224
299.101
297.598
293.38
306.102
293.778
304.079
279.159
296.26
296.326
305.783
297.079
305.726
297.964
307.072
293.15
306.424
302.765
304.605
297.594
302.572
298.362
298.018
302.64
293.645
302.884
298.88
296.322
306.399
306.26
297.34
305.401
300.975
301.611
293.15
302.74
297.36
297.472
302.362
305.843
302.423
306.861
313.212
303.925
306.454
306.724
296.856
296.188
304.173
306.202
298.833
297.676
295.899
302.254
308.047
305.774
303.04
300.537
304.255
298.453
299.833
307.319
298.139
293.764
306.505
298.8
301.957
302.091
298.718
306.219
294.787
296.832
304.26
299.835
293.718
295.275
298.178
303.811
303.163
299.803
300.611
305.722
306.438
297.996
305.539
299.661
303.263
305.232
306.965
302.35
300.84
301.082
299.81
301.6
307.143
299.467
284.004
306.381
298.832
298.211
293.204
299.519
299.723
306.617
303.552
299.146
301.56
298.257
299.127
302.917
293.147
300.3
300.416
298.932
306.551
293.15
300.002
301.702
305.494
300.567
296.587
302.257
296.766
295.441
296.89
298.865
308.038
302.874
299.207
278.717
319.227
297.091
296.27
305.608
298.796
297.152
298.825
305.199
304.922
297.269
302.618
298.22
297.525
307.022
307.879
298.248
294.096
298.255
297.806
293.627
297.917
293.874
297.432
297.378
297.826
297.868
294.702
294.433
298.262
294.2
302.753
300.853
297.23
297.355
293.881
302.303
297.491
294.587
306.649
296.31
299.976
299.27
294.508
281.363
299.845
278.238
302.578
298.604
308.248
300.611
300.613
300.708
297.275
302.022
302.395
301.122
306.823
300.888
293.15
303.76
301.148
296.944
294.878
303.597
303.638
303.12
307.584
293.15
299.347
304.759
304.199
300.906
305.732
303.252
295.187
298.506
302.458
304.671
301.106
295.368
301.063
318.733
300.781
301.011
306.658
302.685
293.23
294.045
306.592
315.675
298.718
301.226
303.281
303.8
300.325
295.41
302.509
297.167
297.378
307.838
305.516
297.161
297.934
302.922
304.899
305.341
293.486
300.038
298.339
299.319
293.493
294.947
300.812
297.358
293.239
295.758
296.967
293.147
299.606
301.697
293.304
293.15
294.028
301.683
302.32
294.812
293.544
285.077
301.173
306.767
304.712
306.814
306.728
302.735
299.962
295.77
305.505
300.183
298.815
299.359
302.561
305.593
301.492
302.776
301.495
306.023
293.15
306.172
306.069
304.901
300.899
301.351
295.168
296.853
301.505
304.095
313.208
306.537
304.042
302.006
306.182
300.907
298.766
304.877
301.033
306.195
300.342
301.534
298.878
295.492
298.912
315.064
297.938
299.949
298.29
293.15
302.679
299.19
300.185
303.98
299.918
309.138
297.726
297.501
297.152
300.072
303.448
300.735
301.152
293.15
301.773
307.691
303.427
307.859
309.276
307.973
298.177
293.194
301.933
308.935
296.205
297.795
296.248
306.598
293.15
303.847
293.15
298.507
293.255
298.48
295.705
293.15
302.25
304.038
293.164
293.347
306.814
300.573
293.151
302.334
296.901
304.361
305.792
296.073
303.734
293.946
296.149
297.78
273.585
304.16
308.17
293.15
299.32
305.657
302.816
307.623
304.825
294.297
296.296
293.656
301.732
306.196
297.604
306.526
293.15
307.027
299.612
306.115
302.918
296.319
306.345
305.221
312.575
306.641
306.045
302.712
301.953
306.522
301.987
293.148
305.731
293.486
306.929
298.482
297.699
300.278
303.457
294.226
298.779
300.398
297.916
293.121
273.429
299.124
298.463
303.675
296.581
293.15
272.702
302.232
304.641
302.636
303.934
299.625
305.582
296.926
304.315
308.021
312.909
302.938
300.807
293.15
301.851
297.879
304.146
302.55
301.785
299.273
304.519
295.91
293.15
296.363
302.443
306.747
303.327
297.765
294.948
298.145
300.256
299.471
293.15
293.15
304.384
305.746
294.249
305.273
303.904
302.68
305.866
301.328
301.821
298.459
293.15
297.057
299.016
304.947
305.235
293.433
305.815
297.014
306.242
301.926
303.648
299.947
302.731
304.937
301.606
303.77
303.884
298.935
303.239
293.649
303.929
305.034
303.182
306.23
302.729
315.044
293.15
297.933
308.143
298.591
302.028
306.537
308.142
306.489
293.152
293.383
297.67
297.544
293.15
295.13
305.237
298.347
293.338
295.381
303.598
302.918
293.799
306.414
297.662
293.15
296.051
293.867
303.035
295.203
306.939
303.26
296.562
299.912
296.469
303.03
293.149
293.26
298.795
302.671
298.695
303.672
303.753
300.094
301.856
293.409
294.759
297.92
300.334
293.15
299.688
300.78
298.621
302.503
298.481
305.228
304.324
307.414
304.23
303.981
296.558
295.666
301.713
295.676
303.163
298.581
299.12
307.17
304.909
296.432
293.926
307.51
297.731
308.788
297.173
306.823
298.45
297.421
293.328
305.335
293.923
300.675
297.579
320.643
297.329
303.981
302.82
305.317
308.192
299.526
303.029
296.464
306.379
297.279
298.578
297.708
304.434
303.982
306.006
296.486
300.708
299.766
296.798
316.918
312.542
302.079
307.583
297.802
299.082
297.896
298.694
298.104
300.772
293.159
297.992
306.498
297.197
300.135
306.489
296.845
293.162
297.308
297.143
298.269
297.83
299.741
295.131
302.177
304.325
299.514
299.12
300.071
296.57
302.787
300.198
297.187
304.283
300.087
301.147
299.52
304.099
307.145
283.565
300.125
299.466
297.761
293.134
307.369
307.648
296.924
296.682
298.74
301.135
293.453
301.576
298.849
300.766
299.476
300.308
293.975
300.837
301.735
302.285
297.9
300.09
298.351
298.298
300.108
293.325
293.636
298.428
286.853
295.354
294.673
295.483
294.671
295.31
288.552
281.273
294.142
296.966
294.55
294.926
301.549
299.361
298.297
301.39
301.598
303.346
298.997
302.966
302.112
298.414
297.975
304.461
303.887
297.732
307.464
296.591
298.718
307.498
305.023
304.355
296.987
305.182
304.645
294.302
307.015
296.366
293.15
306.255
308.911
303.004
304.401
298.306
301.217
302.068
294.748
301.239
296.733
294.674
293.149
307.284
305.028
296.229
294.832
294.865
280.599
291.252
298.748
307.258
298.091
300.839
307.356
295.148
303.55
303.887
303.556
304.019
300.271
300.397
301.765
300.188
300.272
299.655
297.4
303.091
296.093
305.244
296.688
298.05
305.233
305.043
306.017
303.27
300.018
299.1
306.083
307.773
294.25
297.973
300.938
299.201
306.452
305.019
308.666
302.53
296.586
296.734
305.787
300.924
306.17
298.659
305.139
303.015
303.811
306.913
309.282
307.782
305.835
308.409
307.135
302.463
305.084
293.15
305.793
304.17
301.141
297.56
310.123
297.538
307.566
297.636
298.884
300.368
297.829
297.061
297.421
296.517
303.941
299.708
298.618
305.622
295.416
305.738
299.988
305.879
296.404
303.436
303.336
306.465
303.864
304.129
296.512
301.977
304.521
301.642
296.477
305.765
297.98
302.987
298.556
305.018
304.922
295.241
304.764
295.626
307.43
298.268
305.771
307.012
299.761
307.258
304.07
301.374
301.06
301.585
304.995
303.653
301.005
306.303
296.987
302.277
305.059
303.661
307.103
294.174
302.352
307.483
294.254
305.966
303.707
306.246
298.769
304.929
306.864
301.462
296.732
303.086
298.528
295.008
307.511
305.176
297.231
299.787
306.732
302.075
306.626
298.933
301.611
296.218
304.229
310.178
298.007
298.676
299.615
297.698
298.874
297.333
303.156
301.506
296.406
301.644
299.006
304.569
309.516
306.214
303.37
293.134
302.005
304.61
305.662
305.852
304.329
297.419
296.66
302.322
305.567
303.866
308.477
304.094
305.855
294.976
305.959
308.33
309.109
304.539
294.297
301.471
301.044
301.363
305.613
303.474
297.096
315.522
303.589
301.934
300.558
302.413
306.045
305.776
308.76
297.999
302.703
299.179
304.789
301.749
297.4
295.734
311.704
295.335
299.955
302.639
307.288
304.335
306.172
305.571
304.908
308.463
300.547
297.829
297.969
307.349
296.657
304.59
299.812
296.47
298.665
313.045
301.897
298.812
307.222
306.093
306.26
305.909
303.981
294.128
295.083
294.643
306.43
306.483
305.026
305.441
301.365
300.794
297.965
303.872
294.516
304.252
299.317
293.464
291.565
294.497
301.051
306.335
304.603
299.176
299.053
299.202
297.455
301.898
313.257
300.136
302.541
300.929
296.391
301.518
304.867
303.438
296.653
301.751
302.238
306.432
297.382
298.507
298.698
304.955
313.747
296.953
297.568
299.717
301.174
305.448
309.971
297.473
298.283
300.429
297.489
296.641
299.37
300.103
297.076
299.862
298.748
299.452
302.147
303.981
293.832
300.72
307.011
293.377
305.792
299.216
301.465
293.934
301.435
304.01
295.986
297.343
298.297
294.456
297.851
298.628
301.44
303.211
299.004
298.168
298.176
303.24
300.31
298.177
301.703
298.377
296.198
301.149
300.829
300.797
296.567
294.636
304.038
302.708
301.23
297.317
299.235
299.836
299.803
301.043
312.228
307.051
293.588
298.511
289.525
299.184
310.551
300.637
296.148
299.121
304.143
293.799
299.996
300.608
307.11
294.303
304.318
293.375
305.927
302.67
307.04
293.15
304.378
293.15
293.89
300.889
299.855
304.051
303.474
298.506
304.889
304.929
303.267
307.147
297.382
299.435
297.551
304.642
302.996
300.997
301.171
303.46
304.7
301.767
302.348
301.634
301.431
297.616
297.075
300.323
300.849
299.823
306.601
305.087
302.629
306.063
307.685
301.15
294.929
306.623
304.631
301.931
299.054
303.881
304.018
297.701
312.514
299.175
307.275
303.924
303.578
294.147
293.15
302.216
302.987
301.313
302.635
304.815
303.349
297.612
293.099
307.015
298.104
307.342
298.466
293.204
300.974
298.403
300.626
305.925
305.771
306.433
302.36
305.208
298.402
301.519
294.147
305.731
304.846
301.501
305.738
305.44
301.277
300.037
299.858
300.274
299.075
300.884
299.557
302.51
302.474
295.316
298.931
296.661
302.459
286.341
294.703
301.809
278.211
303.031
303.571
301.825
299.607
281.661
281.749
297.686
298.248
306.28
298.246
303.423
311.108
306.758
299.069
300.654
300.251
297.935
295.971
288.451
297.806
294.335
296.342
297.377
302.541
302.167
300.969
299.035
306.578
311.848
297.6
297.365
297.818
298.426
293.502
298.75
303.227
307.464
293.1
304.997
294.933
309.891
301.482
299.6
292.493
273.479
306.158
298.552
297.038
298.649
303.26
301.407
305.058
299.371
298.57
305.312
298.675
295.175
300.437
302.286
309.774
303.454
304.533
307.055
299.094
303.742
300.659
300.353
298.742
296.271
308.577
304.956
307.654
298.593
302.411
295.155
297.716
298.51
305.974
300.71
298.157
306.21
296.295
300.145
292.863
309.418
300.843
306.315
297.747
299.936
297.32
304.954
296.022
297.285
293.15
306.102
295.283
294.091
296.635
295.258
305.557
296.263
279.107
308.701
298.418
302.794
293.36
299.872
293.152
305.192
303.634
296.156
299.376
297.575
307.058
305.798
300.721
304.007
295.051
298.005
295.872
301.946
298.121
293.404
300.914
302.796
306.367
305.218
295.388
298.125
300.327
293.15
298.927
293.15
299.196
306.325
306.603
293.15
306.875
305.302
307.15
293.494
295.637
299.755
306.523
305.114
300.448
294.548
293.986
304.681
300.697
305.064
303.789
304.229
305.131
293.935
307.395
302.103
304.061
299.664
302.32
296.8
277.422
303.034
300.478
295.537
302.159
282.799
306.454
300.487
282.74
303.747
299.925
299.807
306.994
303.819
300.686
314.412
295.221
306.217
298.005
303
305.146
304.45
303.646
302.603
305
307.413
301.661
293.151
299.583
296.595
303.793
306.51
300.426
302
293.896
284.815
302.7
308.306
301.531
296.529
304.766
297.641
298.218
293.246
300.517
299.507
293.173
291.08
293.338
307.318
298.327
304.734
295.578
303.795
312.384
303.592
306.354
304
297.3
305.396
305.559
304.497
301.849
297.541
303.612
297.775
305.361
297.119
306.382
301.24
296.693
300.27
294.877
297.416
317.545
304.12
299.979
297.747
305.082
307.352
296.019
306.394
304.218
303.459
295.675
303.615
303.692
301.511
294.056
305.029
295.229
295.755
297.404
298.519
301.594
291.682
303.524
297.959
297.43
303.326
297.529
299.39
298.846
299.675
301.457
295.433
305.729
303.474
298.425
305.124
311.095
303.304
300.71
302.131
303.266
302.184
302.533
305.402
298.282
302.331
301.406
302.901
305.753
309.425
304.738
303.251
304.081
293.992
297.177
305.124
294.199
298.454
308.317
303.285
294.994
307.534
297.287
296.367
300.853
299.129
301.367
294.1
304.704
302.994
294.68
297.154
297.232
303.405
303.988
295.928
306.434
307.999
301.566
298.571
300.996
305.599
302.899
306.99
303.996
297.606
296.344
307.744
297.446
305.934
298.052
308.742
297.813
299.849
298.023
305.522
297.259
303.591
302.923
302.334
295.598
297.92
301.026
306.753
302.37
306.079
307.564
306.952
295.08
293.38
297.246
305.246
300.023
294.204
293.617
299.888
300.118
302.584
305.196
298.855
307.743
306.265
296.201
303.873
300.949
298.074
305.636
317.923
309.736
305.098
306.991
301.002
313.442
304.506
304.248
302.354
306.352
300.254
307.819
304.5
295.441
302.859
302.613
301.905
304.118
296.896
296.431
303.162
299.663
294.628
307.605
295.223
308.535
308.078
304.439
296.136
294.271
300.292
298.651
281.389
294.713
298.81
301.422
304.965
297.924
304.507
296.188
301.774
299.001
279.874
276.663
295.619
305.769
302.799
308.259
296.247
300.475
273.265
306.256
287.815
306.239
298.617
286.224
306.535
299.998
303.13
299.638
302.348
305.715
296.561
295.037
305.281
302.012
304.369
301.548
297.827
306.634
298.557
303.21
300.161
304.687
301.562
298.068
310.816
303.061
273.095
296.37
297.774
304.398
304.097
296.992
296.44
307.18
299.134
306.78
301.146
301.152
304.927
302.907
299.217
298.73
305.515
301.559
305.711
307.291
304.082
298.185
305.971
301.828
289.483
309.587
296.729
307.347
301.219
285.526
294.226
298.237
303.902
275.377
308.229
296.598
306.341
294.376
294.292
299.854
303.144
298.751
298.455
299.829
303.136
304.768
307.359
306.785
301.266
299.846
302.283
300.153
304.851
305.718
304.367
303.553
300.992
302.984
308.489
306.838
304.758
307.332
294.422
305.605
300.306
305.82
294.77
294.059
295.233
298.362
284.168
301.011
306.828
305.849
307.131
303.142
303.384
297.154
305.208
305.572
306.55
301.574
311.754
299.393
299.754
306.568
311.502
304.13
302.72
303.233
299.512
299.254
303.016
309.406
302.784
303.643
299.097
307.558
298.948
301.264
306.108
307.353
300.053
307.821
309.543
306.009
303.372
301.55
304.709
299.765
306.078
305.844
301.81
300.498
304.406
303.286
298.702
308.181
295.915
300.283
304.617
307.468
306.045
281.515
306.308
307.359
305.411
298.696
278.521
297.09
293.151
307.148
302.069
304.505
300.254
302.877
304.01
298.509
300.021
295.473
294.779
307.762
301.266
305.766
302.737
294.649
303.113
293.54
302.768
304.936
307.196
303.743
306.62
312.011
302.132
302.55
301.12
303.826
310.479
304.31
303.367
308.126
300.221
302.388
303.017
302.927
302.956
298.788
301.206
307.113
300.081
293.15
306.105
300.102
304.189
303.684
303.73
300.854
293.869
295.437
305.623
305.225
304.846
293.812
305.36
298.31
304.611
304.637
301.552
305.454
294.195
298.227
307.776
299.972
294.935
303.818
304.674
305.892
300.635
298.54
305.576
303.488
306.946
298.105
300.005
302.568
306.222
298.129
300.487
303.597
293.274
301.252
303.417
305.487
304.353
302.921
302.629
298.945
298.751
298.478
304.642
303.712
293.15
307.292
303.157
303.974
292.605
303.823
302.161
299.696
305.37
300.274
300.607
293.15
308.474
297.417
305.035
297.987
299.514
297.44
297.723
300.285
296.813
297.692
303.716
298.566
307.792
302.252
302.003
302.994
301.375
300.103
300.374
307.315
298.749
296.534
300.447
297.505
309.317
307.026
302.763
305.606
295.373
300.8
297.384
306.031
300.49
299.666
305.361
303.953
305.823
305.148
311.941
297.532
293.15
306.03
306.069
303.741
301.372
303.851
307.3
302.185
298.744
306.457
290.747
300.238
303.816
304.52
306.009
292.273
307.603
308.228
303.168
298.293
302.42
298.459
303.669
307.685
305.064
293.205
302.491
304.038
293.178
293.178
304.706
306.75
307.12
293.144
305.135
307.158
305.423
304.796
304.576
300.322
302.539
298.128
293.265
310.836
302.505
302.007
284.164
303.941
306.144
301.304
307.719
306.804
289.026
300.517
297.536
304.765
297.768
296.79
293.11
306.325
296.341
307.527
293.579
293.738
277.495
296.287
300.141
296.275
300.393
296.012
304.135
299.616
293.948
295.183
293.15
293.595
311.397
302.048
305.104
293.15
304.04
296.188
297.947
307.798
293.15
305.782
305.827
300.701
306.124
306.011
304.061
300.975
297.778
310.002
288.834
303.06
300.364
304.935
306.995
299.789
299.76
298.457
306.042
305.045
295.086
305.417
303.426
297.547
296.104
294.567
302.024
304.612
305.389
305.728
305.665
308.167
303.851
295.74
293.258
307.718
293.979
298.551
309.445
297.585
296.517
307.06
297.407
300.793
303.356
297.31
298.529
297.824
295.765
297.252
306.321
299.184
304.954
298.673
299.43
294.945
297.434
306.143
294.998
295.335
298.726
299.602
303.829
299.771
299.992
293.15
296.707
298.523
294.307
298.353
299.1
305.955
299.99
294.223
296.733
302.344
298.217
299.644
300.542
305.794
298.149
305.4
296.1
303.179
302.373
301.744
300.93
304.024
298.055
298.152
297.969
293.15
295.577
301.416
302.719
303.57
309.257
294.442
302.01
294.658
305.664
303.75
305.637
305.815
302.337
304.092
305.446
302.643
303.893
302.249
307.354
302.483
303.903
301.571
297.765
301.498
297.571
303.476
300.706
297.142
302.95
299.991
301.611
297.624
305.191
293.51
305.382
306.867
303.585
304.021
304.79
303.675
304.907
303.684
303.714
308.367
304.383
303.771
306.446
300.26
295.518
297.761
297.131
301.69
299.773
306.007
299.777
298.801
305.011
309.229
301.817
298.364
288.096
292.722
294.314
302.896
302.4
293.802
294.318
301.288
295.148
287.247
300.591
305.192
302.576
293.671
308.317
293.15
299.84
293.869
302.097
299.486
294.926
309.94
294.065
298.707
288.313
302.569
299.337
302.68
301.955
305.326
304.01
300.307
304.855
303.765
297.385
295.389
297.946
303.154
302.455
312.689
301.256
308.362
300.3
299.297
304.115
302.738
302.029
299.02
304.27
302.743
293.255
295.871
299.216
299.769
299.851
295.77
298.422
299.916
297.292
304.376
279.627
293.281
297.614
300.941
302.394
294.368
305.977
296.418
307.95
300.197
299.365
296.151
299.427
298.522
299.755
305.559
300.401
297.288
297.312
298.52
303.335
306.123
308.375
298.287
307.268
299.345
293.129
300.478
305.032
307.692
298.631
301.915
300.011
306.876
304.041
303.982
296.586
293.15
302.605
305.57
293.687
299.977
294.128
300.29
302.883
305.542
294.354
293.81
295.171
304.079
301.616
293.684
296.388
303.96
304.738
307.902
303.817
306.736
304.66
302.321
304.226
303.169
305.046
293.95
308.197
293.993
293.511
299.287
297.236
294.154
294.001
294.201
296.596
293.172
301.666
300.123
307.17
295.599
298.619
295.066
294.111
294.519
301.398
300.276
296.488
306.395
302.916
301.585
304.944
293.82
299.807
301.792
301.289
300.949
301.306
294.674
293.667
295.195
297.515
305.505
293.514
304.713
299.733
300.7
304.772
304.251
295.447
297.967
298.178
296.97
311.431
296.409
304.081
302.184
304.968
302.725
293.602
303.154
305.667
298.246
302.764
302.902
310.538
305.747
294.232
296.657
300.921
301.024
302.041
300.175
301.735
304.166
306.582
308.43
306.122
306.235
308.895
294.976
315.714
293.79
311.123
303.873
307.81
303.694
303.381
294.118
305.754
293.97
293.096
293.645
294.942
309.78
303.557
306.081
307.212
294.416
297.57
303.371
296.271
306.143
296.562
295.862
296.754
298.368
305.419
294.598
311.717
302.908
294.618
306.491
297.893
296.585
303.848
293.276
298.852
300.751
302.786
307.268
298.326
299.133
300.031
300.213
295.791
303.562
297.392
299.137
305.019
303.074
301.825
300.126
302.912
302.887
304.855
302.178
308.527
303.977
312.297
306.531
306.09
299.718
307.511
302.78
293.15
300.487
301.413
303.733
296.162
306.218
303.818
301.966
302.588
303.892
303.884
302.708
303.161
304.275
295.623
295.606
295.613
304.016
306.767
299.752
296.768
296.359
307.878
301.673
300.214
297.769
301.545
303.127
302.319
299.301
300.711
306.439
296.356
299.905
297.804
300.165
304.038
294.63
303.486
305.552
295.897
296.288
297.002
308.239
297.932
298.435
299.23
300.747
306.069
298.485
296.157
302.131
303.774
298.788
305.293
304.874
294.68
305.093
308.367
296.653
296.602
297.152
303.302
302.964
304.27
299.771
297.06
295.555
306.055
293.494
293.49
302.797
308.116
295.082
301.732
300.239
303.025
304.372
306.483
305.44
313.003
303.098
296.941
305.239
307.321
301.434
304.638
300.913
299.247
304
305.516
301.069
293.646
303.002
304.856
293.155
315.675
293.386
301.701
290.843
302.926
307.816
302.303
305.431
293.112
305.576
295.768
298.909
302.096
294.913
296.229
293.15
294.846
294.318
294.391
296.989
304.492
295.036
294.419
294.495
299.71
298.693
303.737
304.938
295.121
298.384
307.672
305.832
300.786
301.549
306.272
294.214
307.471
298.539
302.864
301.438
300.495
301.438
299.039
306.794
301.388
300.623
299.321
300.189
301.535
305.864
301.624
300.684
307.75
307.15
297.979
293.548
297.739
294.748
293.413
293.15
302.308
295.955
296.992
299.251
295.281
301.708
304.626
297.122
294.45
297.826
300.776
303.991
297.824
302.583
307.472
302.974
296.997
303.322
303.593
305.79
297.483
298.105
307.941
307.192
304.3
297.876
302.718
293.794
298.407
294.926
304.462
305.411
305.569
299.21
302.593
298.249
318.683
305.121
296.928
297.222
297.865
297.634
300.17
296.716
296.059
295.903
298.633
303.898
298.525
298.76
298.438
297.979
301.777
304.46
301.352
300.157
304.626
300.634
300.252
296.577
295.752
295.75
303.677
296.301
299.387
305.393
303.433
297.706
304.472
304.268
297.768
297.802
298.187
293.883
303.846
303.959
297.55
303.724
297.753
294.75
303.303
314.658
297.638
308.011
312.592
304.985
298.256
304.387
305.222
295.211
301.1
293.15
304.258
293.15
293.491
294.916
306.299
294.189
298.98
300.046
308.662
297.807
297.113
298.103
297.209
299.949
302.645
306.391
296.679
306.047
305.371
306.251
297.396
298.105
298.356
299.699
296.893
297.373
296.662
297.379
298.147
301.909
298.806
301.421
293.893
301.237
296.435
300.562
301.665
300.926
292.996
300.966
303.295
299.698
293.315
294.225
301.19
305.752
301.829
307.125
302.432
305.972
304.178
305.975
299.658
299.474
306.935
293.15
306.226
295.349
306.116
299.825
307.392
302.723
301.967
297.946
298.986
297.831
303.832
303.295
295.161
298.612
301.019
293.243
299.939
296.469
305.547
300.673
306.824
300.671
301.747
305.063
300.69
300.509
304.483
296.37
303.31
298.649
305.739
295.043
293.287
293.443
306.867
300.612
296.031
300.646
305.754
307.923
302.613
283.523
297.955
297.198
295.792
296.916
301.481
295.939
299.676
293.859
306.043
302.575
309.497
296.543
296.661
295.835
295.71
307.221
295.508
293.15
303.727
317.259
295.771
304.4
302.747
300.134
302.182
298.575
297.912
303.387
293.242
294.692
303.034
297.246
294.58
297.088
303.312
294.26
297.724
294.832
295.571
301.49
294.474
295.794
296.991
294.622
290.74
300.426
299.735
298.098
296.605
296.557
298.61
299.429
304.866
296.157
303.436
300.502
295.755
305.848
307.277
302.681
300.598
304.913
295.553
306.472
301.64
302.847
305.015
300.298
293.133
300.264
298.552
305.95
303.841
299.079
304.852
293.176
299.715
304.15
293.143
300.029
293.332
301.739
296.652
294.168
299.477
303.715
300.619
293.753
303.926
310.463
304.694
300.084
302.207
306.567
299.756
304.39
294.294
300.85
299.832
299.243
299.62
301.9
301.446
293.787
301.502
304.597
297.797
307.559
300.802
301.215
305.787
294.888
304.252
301.823
301.361
302.921
307.174
302.553
297.883
293.454
301.488
317.401
303.49
303.819
307.401
306.977
304.439
305.153
295.948
306.726
293.662
302.307
301.078
306.441
304.365
301.837
305.454
302.902
307.868
308.1
298.625
307.864
298.652
301.647
304.44
296.94
299.443
297.385
293.114
298.968
297.64
303.332
297.401
297.616
304.622
294.678
297.95
299.435
296.082
301.988
307.242
303.242
298.107
301.704
302.418
303.908
296.905
293.15
301.133
301.978
301.29
293.15
300.923
306.091
299.561
302.706
303.783
304.618
306.042
302.629
298.613
304.616
298.269
301.86
300.078
301.911
300.23
293.253
299.303
302.938
300.767
293.15
295.98
307.49
300.504
304.131
300.019
303.604
301.357
299.974
293.16
303.607
305.421
296.641
296.16
305.164
301.316
301.262
293.416
302.969
301.315
295.205
304.933
297.895
296.853
299.847
299.969
300.501
302.033
305.826
305.143
301.45
304.764
303.423
299.237
306.649
301.019
299.866
299.197
301.714
300.527
298.741
301.055
296.39
295.176
303.561
293.973
293.506
305.665
298.744
300.288
299.571
298.14
300.689
297.543
296.295
296.137
300.163
307.177
305.406
297.513
301.119
293.891
295.894
302.35
298.489
300.632
296.368
301.074
304.126
303.337
298.72
299.441
297.542
295.845
307.685
298.864
309.163
301.115
303.508
293.708
293.148
296.476
298.5
303.316
306.259
300.528
301.733
301.416
303.84
307.663
299.085
307.161
301.944
304.3
304.084
306.725
299.612
304.639
302.275
306.103
306.072
304.708
299.222
304.318
302.612
300.204
302.256
305.771
301.269
299.88
300.003
300.813
301.394
298.831
296.272
301.338
298.612
303.155
295.31
293.15
304.568
296.229
293.93
297.073
305.827
304.28
306.196
298.105
303.247
299.451
301.317
297.432
302.288
302.548
298.734
303.139
303.692
304.975
303.853
297.066
302.079
293.15
296.11
302.904
298.373
297.046
301.441
294.003
297.089
307.111
279.765
293.765
297.792
293.276
305.467
283.771
294.625
304.361
297.779
296.874
296.648
296.601
295.225
302.07
303.07
302.352
295.6
305.411
301.317
299.614
300.149
306.096
303.764
301.691
302.225
307.136
302.042
302.033
302.501
308.242
306.277
303.594
301.199
302.473
305.227
293.582
298.752
294.461
305.553
299.301
301.56
299.362
297.921
296.163
299.815
301.107
297.185
298.111
299.515
303.85
302.215
301.772
297.278
285.967
298.286
304.625
306.204
302.392
298.046
298.519
297.506
299.112
305.238
307.836
306.558
297.538
303.098
301.946
301.375
298.24
297.057
306.648
304.142
306.857
282.884
314.754
293.15
296.158
302.499
300.134
302.349
299.554
301.213
296.774
299.524
299.871
298.533
298.213
301.205
298.113
297.633
301.099
305.014
302.902
302.857
303.467
298.13
303.164
303.483
294.109
296.52
301.819
297.78
298.048
296.96
307.841
303.812
299.034
294.2
305.752
304.038
299.742
293.15
305.061
304.492
303.566
305.011
302.765
303.977
276.69
300.612
299.418
298.061
304.934
297.588
294.172
298.286
296.645
299.85
296.369
302.943
299.17
303.888
306.62
302.125
306.388
301.687
301.743
302.418
296.286
300.133
295.465
304.396
297.962
302.231
305.122
308.903
294.632
296.315
305.149
303.633
294.743
298.546
297.905
297.516
300.073
295.795
295.539
297.612
295.035
294.463
302.873
302.199
307.62
297.807
305.174
303.473
303.882
302.092
306.368
300.411
301.214
302.096
300.68
302.926
308.06
303.005
306.534
296.887
302.292
302.078
307.045
296.554
300.945
302.941
294.321
303.935
300.135
294.439
303.927
302.219
306.927
293.15
300.41
293.734
293.873
293.488
301.351
293.479
308.019
305.927
301.917
304.232
305.488
305.97
305.754
307.342
297.14
303.973
298.794
306.739
298.171
300.069
303.208
304.358
295.54
306.659
307.328
310.361
302.355
306.959
294.922
299.074
300.67
283.315
279.548
298.974
297.203
298.269
303.941
299.361
301.856
304.608
295.996
298.064
295.042
297.313
294.736
297.153
293.15
297.22
293.15
296.443
300.435
297.322
293.15
297.555
302.942
298.69
300.551
293.294
306.357
305.136
297.244
306.475
305.388
306.563
300.666
301.395
303.885
306.352
301.984
303.854
300.226
295.891
303.92
294.678
302.375
305.874
297.344
296.582
298.526
306.426
296.403
308.107
299.985
302.704
306.622
305.121
314.936
306.399
306.282
282.704
281.454
297.031
297.829
307.27
304.368
300.27
281.787
302.262
299.965
299.65
297.354
301.043
314.761
293.15
301.645
293.454
293.15
313.343
297.724
312.049
293.15
302.857
294.557
294.721
297.578
293.15
296.437
294.79
297.145
306.51
304.225
306.579
293.156
304.865
305.433
293.138
293.861
312.698
295.779
304.013
302.543
294.442
293.15
293.931
293.15
296.033
294.449
293.151
300.896
299.865
294.951
288.834
300.131
297.289
296.777
306.23
299.6
299.806
305.964
293.317
277.455
297.702
298.886
294.341