/*--------------------------------*- C++ -*----------------------------------*\
| =========                 |                                                 |
| \\      /  F ield         | OpenFOAM: The Open Source CFD Toolbox           |
|  \\    /   O peration     | Version:  2312                                  |
|   \\  /    A nd           | Website:  www.openfoam.com                      |
|    \\/     M anipulation  |                                                 |
\*---------------------------------------------------------------------------*/
FoamFile
{
    version     2.0;
    format      ascii;
    arch        "LSB;label=32;scalar=64";
    class       volVectorField;
    location    "2/shell";
    object      U;
}
// * * * * * * * * * * * * * * * * * * * * * * * * * * * * * * * * * * * * * //

dimensions      [0 1 -1 0 0 0 0];

internalField   nonuniform List<vector> 
7335
(
(-0.0280223 0.0431306 0.219125)
(2.53165 -0.319549 0.0632711)
(3.17579 -0.719146 0.407906)
(0.127048 -0.104971 -0.00554554)
(3.0183 -0.292553 0.0743546)
(-0.0758005 0.136292 0.301663)
(-0.129304 -0.0263831 0.075235)
(2.81183 -0.39796 0.059771)
(3.16538 -0.238641 -0.0834474)
(2.95042 -0.524891 0.321667)
(0.0276451 0.0437316 0.926485)
(0.151451 -0.134504 -0.0177636)
(0.00859013 0.0659683 -0.0879879)
(0.0256382 0.0322135 0.331218)
(-0.0714787 -0.00451381 0.0137708)
(0.0283644 0.00980582 0.373608)
(-0.0226416 -0.0531278 0.0825891)
(-0.0888468 0.078671 1.12985)
(0.0188998 -0.00997625 1.12952)
(-0.0840464 -0.164353 0.549221)
(-0.21734 -0.217107 0.234497)
(-0.0169741 0.0197423 0.880142)
(-0.0269966 0.00360848 0.0272664)
(3.05634 0.304744 -0.749804)
(-0.00283067 -0.041228 1.09641)
(-0.436716 1.02536 0.490709)
(0.790131 -0.456379 1.68457)
(-0.0194079 -0.00525935 0.0266172)
(0.00337452 -0.0385807 1.08018)
(-0.255955 0.897227 -0.0707676)
(0.000861341 -0.00588154 0.0909947)
(-0.543248 0.372091 0.624543)
(-0.817296 0.240127 -1.76678)
(-2.71944 0.0882916 0.00923893)
(-2.92002 0.0401 0.0948214)
(0.0428841 0.0616642 1.1105)
(0.0264299 0.0254479 1.0883)
(0.0383267 0.0585032 1.08253)
(0.0128911 -0.0261873 0.0914047)
(0.0516732 -0.0190544 0.638099)
(-0.058878 -0.00785223 0.0197609)
(-0.00406576 -0.0453103 1.012)
(0.00198418 0.0396294 1.06986)
(-0.052111 -0.0112286 -0.0554159)
(0.0890483 -0.0374027 0.220289)
(0.0854492 0.0373748 0.79063)
(0.0460648 -0.00887117 1.1489)
(-0.0222463 0.0529798 1.14716)
(0.025583 0.0201476 1.14384)
(-0.499719 -0.248864 0.483225)
(-0.00074854 0.000390426 0.105573)
(0.00840252 0.028584 1.11804)
(-0.595718 -0.472323 0.525269)
(0.149733 0.0619696 0.10558)
(-0.000334549 0.00492619 6.32194e-05)
(0.0461827 0.0205118 0.410456)
(0.000643991 0.00327046 0.000257897)
(0.0464559 -0.02818 0.753077)
(-0.0720121 0.0218402 0.0839147)
(0.162025 0.0882621 0.103602)
(0.341459 0.0518029 0.0632395)
(0.0119606 0.0233374 0.190693)
(0.258594 0.294018 -0.22445)
(0.00657128 -0.0160445 0.857377)
(-0.23366 -0.332534 0.100638)
(0.0546214 0.050742 1.02904)
(0.0503778 0.106855 0.259497)
(-0.160142 -0.0173658 0.0980908)
(0.00162252 -0.00473107 0.0458794)
(-0.00748284 -0.0389788 0.00816204)
(0.0138045 0.0215496 0.144375)
(-0.369037 -0.965578 0.69043)
(0.229289 0.114523 -0.0536858)
(0.0570587 -0.0167825 0.556565)
(-1.57405 -1.50926 -0.110764)
(-2.93823 -0.0175919 0.0660745)
(-0.593073 0.371299 0.731376)
(-0.140889 0.143687 0.108449)
(-0.0825512 0.133678 0.104948)
(-0.00821735 0.00362529 0.000316634)
(0.0257335 -0.085912 0.0377537)
(0.0374986 -0.0832992 0.0305403)
(0.31701 -0.188054 0.0343259)
(-0.131128 0.0886498 0.0328506)
(-0.0737194 -0.00171383 0.177112)
(-0.0741238 0.0728609 0.126025)
(0.0162354 0.00502703 0.21617)
(-0.00915437 0.00627837 -0.00129919)
(0.238334 -0.174119 -0.0187391)
(-0.140396 0.174781 1.11437)
(0.000619518 -0.0192519 0.204736)
(-0.00767082 -0.00489238 0.0163454)
(-0.218223 -0.353096 0.0262617)
(-0.000404719 -0.00270408 0.00871185)
(-0.0224266 -0.0868082 -0.0953604)
(0.0523696 0.0289571 0.533012)
(0.0358265 -0.0847315 0.00726198)
(0.021365 -0.0808092 0.00344353)
(0.118154 0.120867 0.295389)
(0.0650849 -0.0156925 0.61765)
(0.0447099 0.0176999 0.112793)
(0.0637423 0.0741695 0.0404552)
(0.140401 -0.185247 -0.03812)
(-0.000972471 -0.0118963 0.983471)
(0.00624105 0.00594601 0.266045)
(-0.0181963 0.0203282 0.0418841)
(-1.3021 1.11585 0.700445)
(0.0109532 -0.00616181 0.000687465)
(-0.0730227 -0.01864 0.0341537)
(-1.35845 1.28808 0.65954)
(-0.0820428 0.0833418 0.112636)
(0.114518 0.0103429 0.71848)
(0.0154041 0.00544243 1.00126)
(0.0782473 -0.151957 0.732032)
(0.0111629 -0.0038369 0.971863)
(0.0388057 -0.0946597 0.630738)
(-0.103299 -0.0797306 0.124451)
(-1.05944 -1.30754 0.645303)
(0.0102408 0.00343501 0.000707765)
(0.324922 0.210609 0.532437)
(-0.261629 -0.239948 0.104207)
(0.103616 -0.102633 -0.00633392)
(0.00465091 0.0313311 0.667042)
(-0.32417 0.334067 0.618141)
(0.103129 -0.133034 -0.0660299)
(-0.0201568 -0.0384408 0.0204561)
(0.0914325 0.112061 0.265567)
(0.0932467 0.0964426 -0.00885736)
(0.015288 0.0129655 0.331908)
(-0.168502 -0.372993 -0.0355353)
(-0.209451 -0.354423 0.0611639)
(3.05365 -0.0996479 -0.137741)
(3.08528 0.0170261 -0.420011)
(0.00461556 0.0179312 0.314994)
(0.00343409 -0.0212993 0.364134)
(0.114884 -0.109591 0.620931)
(0.0635081 0.0917515 -0.0103116)
(0.00267595 -0.00155175 0.226772)
(0.0719664 -0.0147623 0.556939)
(0.0488506 0.0177407 0.829441)
(0.0475629 0.0243004 0.841597)
(-0.0377724 -0.0214497 0.0456033)
(0.191654 -0.0320781 0.573266)
(0.0558245 -0.0156206 0.618543)
(0.0180787 0.0104291 0.242507)
(-0.0274791 0.0185303 1.00648)
(0.021231 -0.0104046 1.12118)
(0.000963295 0.00754809 0.992527)
(-0.0167258 0.0160286 0.0126086)
(-0.909313 0.044865 0.70572)
(0.0563717 -0.0250354 0.432428)
(0.197524 -0.0473488 0.560227)
(-0.245374 0.0454419 0.0535634)
(-0.00364853 0.0142371 0.229365)
(0.00752963 -0.0384321 0.935103)
(0.00411005 -0.0214196 0.118736)
(0.0413174 -0.093515 0.0793528)
(-2.92161 -0.0308748 0.0914485)
(0.00186855 -0.011786 0.103789)
(0.0248183 -0.0454031 0.83134)
(0.148339 0.0532829 0.704259)
(0.195249 -0.0856836 -5.01361e-06)
(0.214 -0.166067 -0.00488495)
(-0.0580454 0.0350362 1.10983)
(0.0100332 -0.0438213 0.93415)
(0.0336067 -0.0175786 0.823292)
(-0.456912 -0.186851 1.00883)
(0.043362 0.0203344 0.868239)
(0.0342737 -0.0199629 0.689201)
(0.0483892 0.0400764 1.18875)
(-0.00628775 -0.0392348 1.16277)
(0.00844853 -0.026813 0.800441)
(0.0491282 0.0159067 0.88733)
(0.0498079 -0.0342062 0.438435)
(0.116493 0.0605497 -0.0128591)
(0.0238013 -0.0369323 0.384296)
(-2.78443 -0.0156048 -0.0484786)
(-0.0429474 -0.00371187 0.986978)
(-0.0165614 -0.00371168 1.11067)
(-2.92776 0.0355328 -0.00134395)
(-0.0357326 0.000656631 0.978212)
(0.0180485 0.00581627 0.580443)
(-0.0473534 0.00642987 0.0384303)
(-0.0130219 0.0327226 1.07769)
(0.00761322 0.00854555 0.223528)
(0.00538267 -0.00865127 0.869275)
(0.00752771 -0.0330946 0.0829131)
(0.465177 1.14309 0.150917)
(0.0551652 -0.0862845 0.0811208)
(-0.00230595 -0.0296218 0.0215317)
(0.00681018 0.000859 0.0892823)
(-0.00438241 -0.0309525 0.527182)
(0.00496192 -0.000658247 0.0822994)
(-2.87925 -0.0233047 0.0380222)
(-0.00912061 -0.0405825 0.0822865)
(0.0613148 -0.395751 -0.821002)
(-1.58091 0.385057 -0.0344443)
(0.0598703 -0.0158172 0.621467)
(-1.9996 -0.976164 0.646313)
(0.00298495 0.0220787 0.382978)
(0.0340255 0.00163698 0.534174)
(0.0531808 0.00216466 0.707843)
(-2.74191 0.100857 0.122358)
(0.0326101 0.0605486 1.0977)
(0.00156161 0.00311995 0.366442)
(-1.1059 -0.042956 0.879168)
(-0.0435849 0.00448405 0.0181564)
(-0.261582 -0.193195 1.03126)
(0.511815 0.980399 0.722262)
(-0.0154645 0.0175743 0.0122781)
(0.0297825 -0.0421393 -0.0197002)
(0.0522356 0.0217176 0.837659)
(0.0315642 0.0286919 0.913)
(1.75028 0.75657 0.896835)
(0.0530085 0.0266381 0.821107)
(0.181773 0.0898808 1.12409)
(-0.00546759 -0.0030553 0.00204635)
(-0.112787 0.284063 -0.186389)
(0.175149 0.128928 -1.71427)
(-0.016786 0.0142769 0.0924306)
(-0.0374867 -0.00368574 1.12469)
(-0.00359602 -0.00449661 0.00178914)
(-0.00388131 0.0140888 1.1377)
(0.216582 -0.782436 -0.85142)
(-0.175806 -0.0994414 0.0340927)
(-0.0205295 0.0175693 0.0214697)
(0.000348491 -0.0091937 0.0224834)
(0.150146 0.250411 -0.720121)
(0.0308814 -0.0183753 -0.0242637)
(0.0306097 -0.0816575 0.0931668)
(0.013468 0.0349198 0.373699)
(0.114805 -0.0246587 0.652018)
(0.0926551 0.174241 -0.18869)
(0.00620161 -0.0167427 0.389659)
(0.000728317 -0.0586153 0.0217253)
(0.0773549 -0.141317 -0.0215881)
(0.105279 -0.15314 -0.0246055)
(0.103258 -0.165176 -0.0484209)
(0.10012 -0.155483 -0.0265818)
(0.800525 0.205407 -1.98267)
(0.129465 -0.142534 -0.0133278)
(-2.92334 0.00212318 0.0147025)
(-2.93488 0.0190556 0.0153394)
(0.00280691 -0.0113207 0.0332591)
(0.00943798 -0.0242361 0.0915289)
(-2.87709 0.0381076 0.00835122)
(0.0106803 -0.0156352 0.967032)
(-2.86704 -0.0125447 0.104994)
(-0.994946 1.91832 0.308622)
(-0.00318085 -0.00739315 0.0150291)
(0.0078256 0.0264058 1.08062)
(0.00141519 -0.0162801 0.0451709)
(0.0109857 -0.0175806 0.0664615)
(-0.014096 -0.0349792 0.0438442)
(0.0537713 0.00252995 0.781911)
(0.256864 0.366062 -1.14149)
(-0.583527 -0.0239789 0.893411)
(-0.0875003 0.087077 0.142309)
(0.0282331 0.035828 0.908094)
(0.0585776 -0.0265426 0.723697)
(2.7225e-05 -0.0575065 0.00626334)
(0.0525057 -0.0902366 0.00291199)
(-0.621077 -0.622799 1.5145)
(0.0357039 -0.0864432 0.00640006)
(0.0168373 0.0167156 0.0945179)
(-0.689591 0.0318713 0.902429)
(-0.0115441 -0.0296544 0.0441682)
(0.0229938 0.0416112 0.36922)
(-0.747762 0.162207 0.793013)
(-0.765312 2.04878 -0.00651638)
(0.217687 -0.0406598 0.0475668)
(-0.743248 -0.0794209 0.405949)
(-0.746719 0.0571075 0.987838)
(0.00150307 -0.0276424 0.0418125)
(0.0535662 -0.0274501 0.461742)
(-0.698032 -0.119227 0.279529)
(0.0018613 0.0355268 0.90011)
(-0.740995 2.12739 0.108841)
(-0.00810224 -0.0306772 0.04242)
(-0.318662 -1.56972 0.9219)
(0.177945 0.110096 -0.0387681)
(0.00378412 -0.018457 0.0710727)
(-0.0374302 0.124896 0.198316)
(0.00479108 0.00175006 0.0657995)
(0.0335323 0.0471694 0.916306)
(-0.00650591 -0.0162833 0.196368)
(-0.0308397 0.00621717 1.19818)
(-0.180428 0.111027 0.0784758)
(0.0169591 0.034431 0.366466)
(-0.00458006 -0.00579591 0.0192237)
(0.181985 0.0463551 -0.0136086)
(-0.306893 1.59427 0.929429)
(0.00452691 -0.00352327 0.516977)
(0.254017 0.0531356 0.0121561)
(0.263424 -0.0444576 0.0274683)
(-0.82079 1.59663 -0.13568)
(0.00365157 0.00196848 0.206195)
(0.0599209 -0.00454406 0.560912)
(0.0517664 -0.0134075 0.629351)
(-0.0116745 -0.031585 0.0260184)
(-0.00393251 0.0304494 0.946218)
(0.000897501 -0.0101584 -0.0109705)
(-0.000805602 -0.0459994 0.135038)
(0.00217361 -0.0113812 0.02601)
(-1.13952 1.15489 0.461934)
(0.00906576 0.0114034 0.134021)
(-0.873254 -0.247699 0.829692)
(0.00717852 0.0152435 0.151574)
(0.0018474 0.00581387 0.00414142)
(0.00756456 -0.0832828 0.10781)
(0.0376313 -0.017799 0.801641)
(0.0247474 -0.0630429 0.524087)
(-0.133258 -0.20258 0.477125)
(0.0166272 -0.0536019 0.517934)
(0.032142 0.0145523 0.932493)
(0.0173559 -0.0274023 0.400258)
(-2.9421 0.0011976 0.042227)
(-0.00125707 -0.0141677 0.349279)
(0.00441623 0.0117222 0.10991)
(-0.0200778 0.0103553 0.00563634)
(0.0437904 0.0427664 1.1165)
(0.334824 0.0435214 0.272687)
(0.00612929 0.0393332 1.08035)
(0.0296228 0.0136162 0.938065)
(0.0386086 0.0130507 0.330324)
(-0.514508 0.00641537 0.919285)
(0.38948 -0.0424519 0.221422)
(0.0239283 0.0161909 0.962253)
(0.0397929 -0.0221995 0.813823)
(0.197432 -0.060902 0.0180567)
(0.206243 -0.0548141 0.0145172)
(0.0473481 0.035314 1.10044)
(0.245388 -0.108401 0.143555)
(0.283007 0.0366199 0.637011)
(-0.00304157 -0.009614 0.0561742)
(-2.97165 -0.0417693 -0.0134947)
(0.000464368 -0.0197196 0.0289302)
(0.0314917 0.00424636 0.694227)
(-0.0176921 0.0440254 1.08409)
(0.150979 -0.0560794 -0.00584456)
(0.00658977 -0.0272694 0.305631)
(0.168569 -0.040505 -0.00263485)
(0.0219461 -0.0291447 0.297084)
(-0.0277167 -0.00338628 0.0229274)
(0.375538 0.41008 0.636392)
(0.215396 -0.041799 0.0140827)
(0.004245 -0.0106011 0.21841)
(0.0664519 0.0268196 0.956789)
(0.0268113 0.0517451 1.08045)
(0.274043 -0.614763 -0.648242)
(0.00312689 0.00478872 0.350896)
(0.0466023 0.0480683 0.97824)
(0.00286471 0.00178203 1.15984)
(0.0802277 0.00378752 0.836572)
(0.0685608 0.00605869 0.559214)
(-0.0123645 0.0118177 -0.769333)
(-0.000758867 0.0110772 0.349552)
(-0.00127339 -0.0141859 0.0589278)
(-0.000294158 -0.0126743 0.0376018)
(0.0454721 -0.0789524 0.295201)
(0.0390147 0.0365014 0.99521)
(0.00434842 -0.00242673 0.948498)
(0.00659227 -0.00204404 0.369028)
(-0.00406354 -0.0166325 1.00555)
(-0.507875 1.11989 0.749898)
(-0.0016977 -0.00813059 0.372407)
(0.0277158 -0.00405945 0.945198)
(0.0614344 -0.0123637 0.55811)
(0.164919 -0.0353234 -0.00108894)
(-0.0100188 0.0104395 0.96601)
(0.00412689 -0.00677358 0.106567)
(0.157163 0.0945236 0.654942)
(0.0377604 0.0205684 1.06192)
(-0.0113135 -0.0259654 0.0449179)
(0.022881 0.0270584 0.920766)
(0.135747 0.125499 0.0375333)
(0.161682 0.0857425 0.548534)
(0.000247456 0.0139581 1.00551)
(0.000951873 -0.00408895 0.0590832)
(0.0831492 -0.152704 0.376581)
(0.125758 0.010204 0.718277)
(-0.00962073 -0.0331158 0.0598688)
(0.00979544 -0.000425122 0.14341)
(0.0237829 -0.0289307 0.297479)
(0.0615207 0.00275335 0.766701)
(-0.00299049 -0.0232365 0.0452012)
(0.00382156 -0.0279976 0.0591288)
(0.394827 0.37161 0.560954)
(-0.0324002 -0.00631637 0.0236512)
(0.0204778 -0.0328758 0.441627)
(0.0922408 0.0424392 0.501984)
(0.0587974 0.00900732 0.528153)
(0.0705445 0.0228788 0.586125)
(0.120995 0.0631291 0.765192)
(0.0366922 0.042191 0.811302)
(0.000680504 0.0033841 0.241629)
(0.0683849 -0.0575636 0.705996)
(8.70784e-05 0.00182976 0.000277888)
(-0.00130513 0.00681012 0.250853)
(0.0438807 -0.0216964 0.704274)
(-0.00277576 -0.00598558 1.00453)
(-1.79681 -1.49621 0.578765)
(0.0684827 -0.0123566 0.620233)
(0.0776281 -0.0254695 0.672949)
(0.00254399 -0.0158637 0.286444)
(0.011924 0.00710435 0.159396)
(-0.00177416 -0.0146316 0.849216)
(0.0477171 -0.0066799 0.628466)
(-0.00060337 -0.00101132 1.00999)
(0.0292115 0.0457122 0.973021)
(0.0137474 0.0170869 0.222373)
(-2.44496 1.0253 0.33158)
(0.0854882 -0.0461791 0.67941)
(0.0976392 -0.0540181 0.677447)
(0.00895828 0.0125772 0.801223)
(0.00167274 -0.00581545 0.0417695)
(-2.98938 -0.00557477 0.0378062)
(-0.000763126 0.000842904 0.0473282)
(0.0678148 -0.06185 0.671353)
(0.00190154 0.00320692 0.0492964)
(-0.0042332 -0.0311231 0.0539496)
(0.0177772 0.00254238 0.965201)
(0.0969146 -0.0556849 0.588803)
(0.00666867 -0.0171895 1.11261)
(0.0287498 0.0141205 1.12476)
(0.0437435 0.0170494 0.896258)
(0.031417 -0.0214824 0.718846)
(0.00245017 -0.0155234 0.165417)
(0.0400253 -0.0268273 0.257333)
(-0.117036 0.2874 -0.0279041)
(0.000826887 0.00261441 0.00436208)
(0.00827555 0.00907189 0.0132679)
(0.0486907 -0.00396573 1.14782)
(-0.374202 0.200901 0.0937805)
(0.0173083 0.0846988 0.575225)
(0.0428191 -0.0237653 0.706765)
(0.0624753 0.00659627 0.780794)
(-0.0289185 -0.019006 0.932954)
(0.0154701 0.0283682 0.330938)
(0.0255076 0.0719398 -0.048091)
(0.0268211 0.00754823 0.945729)
(-0.000234513 -0.0252945 0.118592)
(-0.017997 -0.014262 1.00156)
(0.0407169 0.00217339 0.681072)
(-0.00683475 -0.0232094 0.018058)
(0.0137887 -0.0334394 0.213091)
(-0.00182441 0.017768 0.997736)
(-0.529811 0.265068 1.0589)
(0.0099777 0.00854947 1.00985)
(0.0444191 0.000890476 0.538737)
(-0.524697 0.173086 0.864353)
(0.00732217 -0.0168551 0.543739)
(-0.42108 0.134343 0.791749)
(0.0179665 0.198655 0.70897)
(-0.0606635 0.209772 0.680761)
(-0.0196693 0.0162591 0.655479)
(-0.0293945 0.0328988 0.583583)
(-0.334036 0.0542384 0.926109)
(0.139489 0.030757 0.366846)
(-0.014299 -0.0106757 1.02389)
(0.0129164 -0.06809 -1.72399)
(0.048228 -0.102487 0.108096)
(0.12155 0.115231 0.618114)
(0.14409 -0.0794638 -0.732503)
(0.0356028 -0.0247603 0.779817)
(-0.011554 -0.0056893 -0.000828868)
(-0.0536903 -0.0266356 0.0375919)
(0.140168 0.107985 -0.701315)
(-0.039155 0.0514036 -1.70479)
(-0.00449013 0.0343265 0.57832)
(-0.003617 0.0104103 0.00194897)
(-0.0590221 -0.285317 -0.0331346)
(-0.0915246 -0.0470135 0.0292369)
(-0.00202015 0.0104647 0.00615866)
(-0.000608168 0.00209841 0.000902439)
(-0.0449943 0.103489 0.199414)
(-0.00210897 0.00913478 0.000860062)
(-0.094534 0.0455526 0.0864179)
(-0.0404931 0.00125262 0.00816295)
(0.201894 -0.047684 0.0287794)
(0.0474757 -0.0264666 0.463465)
(-0.00928452 -0.00822648 0.0813379)
(-0.00682217 -0.00491759 0.841358)
(0.0152514 -0.00571505 0.935134)
(-0.0545577 0.00811939 0.0213085)
(-0.0551245 0.00343834 0.0439536)
(-0.00572668 -0.0035827 0.829052)
(0.0090403 -0.0462819 0.637432)
(0.100583 -0.110063 0.582416)
(-2.93905 0.000530628 0.00707106)
(0.140855 -0.176085 0.717205)
(-0.0484343 0.00215965 0.0533415)
(-0.00237195 -0.00849772 0.0190052)
(-0.0116533 -0.00247045 -9.81467e-05)
(1.98632 0.99557 0.346517)
(0.0489364 -0.0296899 0.257747)
(0.331673 0.0532722 0.521502)
(-0.0226759 0.0192536 0.885368)
(-2.84866 -0.0700663 -0.0559237)
(0.00705891 0.0276172 0.865072)
(0.291542 0.358921 0.665651)
(1.36212 0.736922 -0.0343063)
(0.00894825 -0.0294511 0.798843)
(0.0242421 0.155255 0.795166)
(0.466818 0.484064 0.497862)
(0.0604483 0.0217121 1.02629)
(-0.0693192 0.00369492 0.193067)
(-0.0324393 0.000244893 0.0345601)
(0.0335199 -0.0330075 0.423092)
(0.0507886 -0.0308839 0.487054)
(0.079126 0.00336381 0.852018)
(-0.0114547 0.0167011 0.860299)
(0.0386625 0.0280094 -0.00934323)
(0.0547224 -0.0483044 0.708815)
(0.0533831 -0.0278755 0.470606)
(0.00489231 -0.00926757 0.13963)
(0.053311 0.032933 0.502757)
(-0.345024 -1.22776 0.637731)
(-0.879883 0.172944 0.657122)
(0.00639008 -0.00586413 0.129377)
(0.0583911 0.0471479 -0.0160294)
(0.0270702 -0.0180148 0.923427)
(-0.00474205 0.0221983 0.803007)
(0.966198 1.29239 0.600488)
(0.561688 1.08706 0.103365)
(0.0532044 -0.0461766 0.719168)
(0.0198753 0.0349607 1.1146)
(0.312846 0.107828 0.461487)
(0.0159042 0.0208854 1.06962)
(0.00249757 0.00311974 1.06672)
(-0.00577041 -0.015488 0.00761098)
(3.19539 0.0294522 -0.464602)
(-0.00405166 -0.0345353 1.06919)
(0.0438785 -0.00561541 0.715286)
(0.206271 0.133701 0.446747)
(0.012817 -0.0118585 0.0784621)
(2.80718 0.296438 -0.698268)
(-0.284383 -0.526775 0.449771)
(0.0238484 0.0022194 0.345641)
(0.0310787 -0.00783975 0.207432)
(0.00395298 0.00255114 0.0458203)
(-0.187554 -0.713656 0.409778)
(0.0596672 0.0216684 1.05921)
(-0.0664755 0.0657482 0.0647612)
(0.0512886 0.0482609 1.08843)
(0.123226 -0.350748 0.936001)
(0.0647723 0.0365826 1.01217)
(0.0659123 0.0233153 0.950105)
(-2.94173 -0.505785 0.301333)
(0.0685483 -0.0152361 0.635954)
(0.281341 0.133423 0.465818)
(-0.761037 1.56106 1.25029)
(-2.6398 -0.427889 -0.096502)
(-0.629525 -0.0587413 0.926042)
(0.0666344 -0.000562522 0.692397)
(-0.0724642 -0.0793301 0.092445)
(-0.496404 -0.25675 0.723787)
(-0.0622849 0.434411 1.12347)
(0.00145114 -0.000329342 0.00178131)
(-0.0251364 7.78114e-05 0.0187581)
(0.0221193 -0.0287266 0.318236)
(-0.0372079 0.0451276 0.0399333)
(0.00242534 -0.0647037 0.0239505)
(0.188754 -0.0622231 0.070267)
(0.455425 0.220484 0.40575)
(-0.231986 -0.110165 0.183117)
(0.0172358 -0.0376105 0.768574)
(0.220305 -0.235173 1.33587)
(0.11224 -0.180162 -0.0277196)
(0.0219362 0.0170721 0.929497)
(-0.00150996 0.0024277 0.0605618)
(0.00490469 -0.050316 0.357564)
(0.112487 -0.185895 0.993953)
(0.248405 0.127001 0.503589)
(-0.0105935 -0.00526416 0.0404671)
(0.0861569 0.087133 0.415255)
(0.0453895 -0.12608 -0.593191)
(-2.74474 -0.0935845 0.133845)
(0.0336647 0.0715641 0.493017)
(0.0280853 0.0756661 0.498731)
(2.2026 0.078332 0.443282)
(0.0105261 0.039856 0.0337317)
(-0.0545422 0.00623752 0.0598272)
(0.0694932 0.00174164 0.843579)
(-0.0992177 -0.100083 0.0267478)
(0.0978266 0.085456 0.0378032)
(3.08173 0.324637 -0.257946)
(0.209633 -0.0505994 0.00294222)
(0.157245 -0.0908803 0.0209107)
(0.149759 -0.158395 0.659123)
(0.00447178 -0.0256437 -0.0728199)
(0.0204891 -0.114219 -0.0558477)
(0.253514 0.0248029 0.65279)
(0.0131971 0.0167813 0.913436)
(-0.0664658 -0.00536167 0.0274077)
(0.055804 0.0048301 0.701922)
(0.00614372 0.0335314 0.55659)
(0.00513313 0.0391428 0.902195)
(0.0731229 0.0941158 0.407157)
(0.0108681 0.0142953 0.924952)
(-0.0301944 0.00519661 0.981102)
(-0.00506954 -0.0223107 0.945666)
(-0.0103143 -0.00311961 0.0162556)
(0.0112861 0.00244473 1.14774)
(0.0774424 -0.0339523 0.677166)
(0.0604655 0.00788445 0.749918)
(-3.0321 0.0192126 0.056349)
(0.366797 0.199094 0.511775)
(0.0560054 -0.0606645 0.79926)
(0.0267318 0.0464524 0.907328)
(0.163795 0.322827 0.711794)
(0.031455 0.030001 0.895396)
(-0.0154584 0.0142305 0.0259768)
(0.00111826 0.0108552 1.13347)
(-0.00426594 -0.0114443 1.04654)
(-0.0129951 -0.0121009 1.05795)
(-0.00958798 0.0912025 0.170945)
(-0.000876217 0.000704335 0.106404)
(0.0331184 0.0107788 0.284199)
(0.0530918 0.088356 0.511268)
(-2.9927 0.0197312 -0.0210961)
(-0.0806745 -0.00308195 0.0343762)
(0.019641 -0.0256932 0.123531)
(0.000558483 -0.017591 0.0723218)
(-0.00191118 -0.0227089 0.0246004)
(0.208962 -0.0502048 0.0221896)
(0.169047 -0.0933731 0.0898646)
(0.0446403 0.0450489 1.01836)
(-1.7006 1.18885 -0.261547)
(0.384844 0.0247708 0.411272)
(0.217587 0.0023038 0.0516554)
(0.0779743 0.005096 0.829838)
(0.0197735 -0.140551 -0.0413704)
(0.0623879 0.0326669 0.954597)
(-0.00804337 -0.00705958 0.0409726)
(-2.97509 0.182235 0.0958096)
(0.519732 0.568085 0.604035)
(-3.00863 -0.0605262 0.199188)
(-0.0379441 -0.16263 -0.149344)
(0.84236 0.355005 -0.000151141)
(-0.000305358 -0.0110212 0.0265929)
(0.300544 0.440262 0.504509)
(-2.96796 -0.0348225 0.0431634)
(-0.00152805 -0.00780808 0.017082)
(0.020977 0.0014845 0.290996)
(-2.02613 -1.01755 0.291058)
(-1.15031 -0.635397 0.0240345)
(0.208248 -0.0111762 0.0268709)
(-0.0818852 -0.00544168 0.108029)
(-3.01785 1.24509 0.75759)
(-0.138789 -0.203194 0.0256552)
(-0.0322775 0.0359146 1.20106)
(0.0316746 -0.0193277 0.16534)
(0.011114 0.0125429 0.174895)
(0.019633 0.000798256 1.1337)
(0.029796 0.0260794 0.289943)
(-0.00936508 -0.0147879 0.0060985)
(-0.00766148 0.0107061 1.12555)
(-0.0157917 -0.015702 -0.0026659)
(-0.00187838 -0.00226713 6.75773e-05)
(0.0200749 -0.0147264 0.160359)
(0.00127119 -0.0229091 0.276215)
(-2.86292 -0.0758818 -0.0430922)
(0.0384028 -0.00958182 0.264172)
(0.00864424 -0.0259276 0.317031)
(0.0118695 -0.0238841 0.107524)
(0.00742216 -0.0114603 0.279912)
(0.0501778 0.0792231 0.472681)
(0.096215 -0.426745 -0.264032)
(0.0577012 0.0246061 0.944293)
(-0.76126 0.624849 1.03028)
(0.0124619 -0.0100844 0.134593)
(0.218765 0.280804 -0.235051)
(-0.0779632 -0.314374 -0.104596)
(-0.00154018 -0.0163364 0.292349)
(-2.93483 0.00637519 0.0140521)
(0.0652118 0.161502 -0.233506)
(0.00766742 -0.00120706 0.241486)
(0.0424931 0.141697 -0.325402)
(0.00762198 0.0472287 -0.0958463)
(0.0580582 0.0264261 0.959585)
(-0.00295583 -0.0154862 0.133775)
(0.00686744 0.00900816 0.269855)
(0.00815527 -0.0641124 0.0037755)
(-0.00726947 -0.0199314 0.0489553)
(0.224935 -0.409418 -0.669611)
(0.00773751 -0.0650627 0.00517837)
(-0.00144787 -0.0052016 0.0570313)
(0.0822225 -0.21412 -0.10128)
(-0.00564953 -0.0114935 0.109615)
(-3.03344 0.737851 0.338052)
(0.00404815 -0.00760857 0.0576111)
(-0.876356 0.170716 0.761044)
(0.0103556 -0.185051 -0.139092)
(0.0683733 0.00795416 0.746974)
(-0.0235897 -0.176273 0.305202)
(-0.026536 0.0268695 0.907338)
(0.0486392 -0.0188612 0.257918)
(-0.878936 0.225602 0.427362)
(0.0438029 0.0157657 0.874835)
(0.0424329 0.0245927 0.808957)
(-0.427949 -0.138913 0.171484)
(-1.00311 0.442225 0.376144)
(-0.000422102 -0.00135373 0.00145505)
(0.0410899 0.0246682 0.863495)
(-0.00333882 -0.00256119 0.0322629)
(3.2011 0.0740992 -0.0709136)
(-0.0214798 -0.00777094 0.00361548)
(-2.88774 -0.00229845 0.03695)
(-0.000466506 -0.000531464 0.000778503)
(-0.00211664 -0.000169374 0.0724751)
(-0.0552323 -0.0583789 0.0786557)
(-0.00203115 -0.00710063 0.0205038)
(0.141749 0.0110254 0.492744)
(0.0371294 -0.0255553 0.286414)
(0.00362707 -0.00382266 0.25854)
(0.00484662 -0.00421545 0.23062)
(-0.00712069 -0.000271379 0.0460185)
(0.214557 0.0227158 0.0594172)
(0.0675234 0.0445281 0.00808798)
(-0.00453945 -0.0468517 0.00318054)
(-0.00303456 0.00466974 0.081971)
(-2.94747 0.0145131 0.0766865)
(0.000593453 -0.00322345 0.0591202)
(0.00798745 -0.0213383 0.125659)
(0.0322154 -0.0356094 0.357578)
(0.0640865 0.111719 0.480315)
(0.0814662 0.121722 0.571124)
(-0.00577382 0.00962178 0.0446382)
(-0.00239708 -0.00509032 0.121641)
(0.0169447 -0.0360414 0.131268)
(-2.79943 0.0160708 0.0795488)
(0.0514716 0.0159291 0.936484)
(0.00725949 0.0150305 0.430268)
(0.200994 0.0151432 0.0552326)
(0.175659 0.0389561 0.550519)
(-0.00324241 -0.230999 -0.0279165)
(0.108723 -0.114449 0.260448)
(-0.0262313 -0.0962131 -0.118671)
(0.0887414 0.0701145 -0.00654513)
(0.00357211 0.0312272 0.86519)
(-2.93373 0.00299223 0.0489651)
(-2.87197 0.0102164 0.0263283)
(0.350491 -0.706999 -0.653954)
(0.0118146 -0.0386345 0.3823)
(-0.429101 -0.153372 -0.358796)
(0.0547811 -0.039203 0.488858)
(0.453942 0.27928 0.519775)
(0.161171 0.0731909 0.53808)
(0.016767 0.0222125 0.343084)
(0.0332632 0.0319181 0.848888)
(0.102387 0.0131085 0.605238)
(0.0302888 0.00706134 0.980958)
(-2.96157 0.0560351 -0.00338153)
(-0.0414938 0.00544068 1.179)
(-0.226703 0.0227079 0.201075)
(0.0540748 -0.0452807 0.505902)
(0.0182211 0.0340249 0.344247)
(-0.343248 -1.48103 0.32154)
(0.0715964 -0.236041 -0.171076)
(0.00506325 0.0194104 -0.14024)
(0.130682 -0.248562 -0.119477)
(0.00959518 0.0110098 0.092351)
(0.130146 0.0974279 0.511123)
(0.135499 0.0628351 0.765257)
(0.00497307 0.00331597 0.0891721)
(0.0187034 0.0345926 0.348874)
(-0.00451129 0.0294297 0.775116)
(0.0791902 0.0720022 0.464449)
(0.483844 -0.902757 -0.651211)
(0.0623376 -0.01664 0.623302)
(0.0319653 -0.035149 0.376135)
(-0.953009 -1.01711 -0.670197)
(0.430163 -0.897773 -0.842357)
(-0.00554195 -0.00923374 0.189531)
(0.526577 -1.42501 -0.706483)
(0.1045 0.0974383 0.125546)
(0.469215 0.215639 0.398339)
(0.142445 0.0417313 -0.000321616)
(-2.99564 -0.00645695 0.017971)
(-0.0485155 -0.247443 -0.015224)
(-0.00154875 -0.0130686 0.200899)
(0.0681549 0.0260808 0.898858)
(0.057741 -0.0109174 0.561115)
(0.190975 0.0147432 0.0345475)
(0.0207013 -0.030469 0.185401)
(0.198184 0.00564935 0.0322111)
(-2.7798 -0.0299995 0.616128)
(-0.0600057 -0.0148024 0.0156587)
(0.0303724 -0.0416758 0.976827)
(0.014603 -0.0159838 0.895224)
(-2.93508 0.023358 0.0105583)
(-0.0407049 0.0314631 0.0219332)
(-0.000921268 -0.00365039 0.188498)
(0.0309728 -0.0531121 0.798371)
(-1.37188 0.827156 0.967766)
(0.0804214 0.00682331 0.826507)
(-0.022602 0.0182623 0.0237199)
(0.0375684 -0.0223401 0.235711)
(-0.610876 -0.235158 0.706484)
(0.0691788 -0.205818 -0.130802)
(-0.00072314 0.094904 0.960838)
(-2.88392 0.0104438 0.000699746)
(-0.00635688 -0.00905696 0.00641252)
(0.0719 0.521226 0.277686)
(0.0253259 -0.0275568 0.192095)
(-0.109801 0.0586423 0.370789)
(0.240348 -0.0379781 0.0471522)
(0.00573873 -0.00965207 0.0601884)
(0.032815 0.0371446 1.05144)
(0.0476863 -0.0271142 0.327782)
(0.0446034 0.0446264 1.0585)
(-0.0036225 -0.00176556 0.0471419)
(-3.02458 -0.889997 0.607526)
(-0.287841 -1.69488 0.755633)
(0.0211987 -0.0311732 -0.0630696)
(0.517312 -0.453119 0.618905)
(0.0202145 -0.00358809 0.90069)
(0.376075 -0.67244 0.966943)
(-0.0369838 -0.0296528 0.0296863)
(0.046881 -0.0248256 0.416)
(0.382396 -0.151288 0.621768)
(-2.08424 -0.588712 -0.426951)
(-0.295344 0.0343684 0.837681)
(0.00518019 -0.0230884 0.95267)
(0.0273344 -0.0188758 0.818721)
(-2.66811 -0.0305224 -0.00934691)
(0.0395341 -0.0272421 0.276298)
(-0.000981812 -0.00902844 0.0167416)
(-0.0409755 0.0065246 0.00226248)
(0.342696 -0.123927 0.613196)
(-0.042912 0.00299697 0.00994335)
(-0.00155054 -0.0079599 0.195973)
(0.413634 0.0463112 0.173007)
(0.025738 -0.0259966 0.203154)
(2.50603 0.345043 -0.209882)
(0.776118 -0.8105 -1.22872)
(-0.0139895 0.0669963 -0.0690407)
(0.0793645 -0.02205 0.278416)
(-0.113203 0.0443167 0.02946)
(-0.188259 -0.0422872 0.57792)
(0.421392 -0.391064 0.00178178)
(0.0212595 -0.0360974 0.851029)
(0.0249868 -0.0300772 0.852723)
(0.305529 0.0521725 0.0136083)
(0.372453 -0.381157 -0.0174981)
(-0.13053 0.304154 0.0125021)
(-0.759216 0.554763 1.52279)
(0.0240454 -0.0290698 0.206897)
(-0.309176 0.130271 0.104078)
(0.0999955 0.0649744 0.0582212)
(-0.0127951 0.035289 1.12355)
(0.00221169 -0.00188357 0.183509)
(0.0398024 0.0355067 0.996737)
(0.00369583 0.0447723 1.09931)
(-1.12776 -0.628618 0.55885)
(0.153559 0.340039 1.10734)
(-0.439875 0.167274 1.10463)
(0.0521073 0.0119545 0.440244)
(-0.0160486 0.0143652 1.13228)
(0.0196346 -0.00677365 -0.0292047)
(-0.0198995 0.0275703 1.11982)
(2.75878 -0.344384 0.472718)
(1.90029 -1.19189 0.249811)
(1.1452 0.995636 -0.970821)
(-0.0181834 0.0144689 0.0162795)
(-0.0268079 0.110905 0.332134)
(0.438841 -0.304172 0.0445725)
(-0.0547742 -0.0184214 1.06876)
(0.341819 -0.0862051 -0.72861)
(-0.00295903 0.0232471 1.07658)
(-0.0242218 0.0409287 1.00849)
(0.00958134 0.0136349 1.08372)
(2.87125 -0.181345 0.521089)
(-0.019567 -0.00516482 0.00675676)
(0.397904 0.0326045 -1.01037)
(0.041379 0.0378914 1.07046)
(-0.00222234 -0.0179743 0.625008)
(0.0202173 -0.0477727 0.729329)
(0.00514035 0.0185382 1.16154)
(-0.00630568 0.0474546 -0.00448048)
(-0.00412756 -0.0217121 0.00931217)
(-0.0226979 -0.0516942 0.614606)
(0.00206505 -0.0346628 0.46369)
(0.00265373 0.0311054 1.09197)
(0.0414357 -0.00719419 0.686376)
(0.024192 0.0348975 1.04648)
(0.0663088 -0.00930917 0.721974)
(0.0108538 0.0208839 1.02947)
(0.0465913 0.0027684 0.454034)
(-0.683171 -1.36161 0.316954)
(-0.00782922 -0.000933551 0.926126)
(0.000744244 -0.0181007 0.263971)
(0.0274231 0.0239457 1.14082)
(0.0186262 0.0408608 0.881951)
(0.0226458 -0.0362865 0.389005)
(0.0104225 0.0082191 1.13817)
(-0.794517 -1.60578 -0.535402)
(-0.0382498 0.0773297 1.12819)
(0.0559189 0.00612694 0.799305)
(0.0705276 0.00375882 0.683316)
(0.0209116 0.00781693 0.530529)
(0.0495924 0.00325963 0.723509)
(0.0725871 0.00836518 0.850194)
(-0.0139818 0.00440363 -0.050896)
(0.0201651 -0.00115703 0.00398036)
(0.0169434 0.0248146 0.973765)
(0.00168714 -0.0395424 0.852702)
(0.0534001 -0.0794025 0.682871)
(-0.325457 0.162537 0.271412)
(0.212549 0.115358 0.54114)
(0.0770613 -0.0494866 0.705902)
(0.0781681 0.00545264 0.601382)
(0.00291175 -0.0139713 0.0456643)