/*--------------------------------*- C++ -*----------------------------------*\
| =========                 |                                                 |
| \\      /  F ield         | OpenFOAM: The Open Source CFD Toolbox           |
|  \\    /   O peration     | Version:  2312                                  |
|   \\  /    A nd           | Website:  www.openfoam.com                      |
|    \\/     M anipulation  |                                                 |
\*---------------------------------------------------------------------------*/
FoamFile
{
    version     2.0;
    format      ascii;
    arch        "LSB;label=32;scalar=64";
    class       volScalarField;
    location    "1000";
    object      alphat;
}
// * * * * * * * * * * * * * * * * * * * * * * * * * * * * * * * * * * * * * //

dimensions      [1 -1 -1 0 0 0 0];

internalField   nonuniform List<scalar> 
27000
(
0.00394946
0.00670407
0.0093657
0.0117499
0.0140675
0.0162305
0.0181939
0.0198522
0.0212785
0.0224975
0.0235098
0.0243121
0.0249072
0.0253023
0.0254997
0.0255002
0.0253037
0.0249094
0.0243149
0.0235123
0.0225002
0.0212813
0.0198547
0.0181958
0.0162314
0.0140668
0.0117473
0.00936146
0.00669982
0.00394702
0.005748
0.00127801
0.00515929
0.00907777
0.0131546
0.0170237
0.020674
0.0240649
0.0271326
0.029855
0.0322029
0.0341497
0.0356606
0.0366912
0.0372121
0.03721
0.0366851
0.0356514
0.0341391
0.0321935
0.0298472
0.0271259
0.0240588
0.0206689
0.0170198
0.0131506
0.00907439
0.00515525
0.00127595
0.00574488
0.00922367
0.00713088
0.0145768
0.0261935
0.0368642
0.0461793
0.0546866
0.0626347
0.0698558
0.0762213
0.0816528
0.08609
0.0894864
0.0917857
0.0929441
0.0929412
0.0917782
0.0894785
0.0860889
0.0816679
0.076264
0.0699196
0.0627109
0.0547658
0.0462552
0.0369275
0.0262529
0.0146056
0.00711808
0.00921993
0.0121567
0.0108471
0.0261707
0.0527468
0.0782374
0.0962967
0.10977
0.120785
0.130033
0.137697
0.143963
0.148919
0.152616
0.155075
0.156304
0.156306
0.155081
0.152633
0.148958
0.144034
0.137804
0.130174
0.120942
0.109919
0.096425
0.0783657
0.0528971
0.0262524
0.0108409
0.0121545
0.0149274
0.0144861
0.036998
0.0763535
0.113335
0.139139
0.155979
0.167835
0.176689
0.183101
0.188031
0.191834
0.194606
0.196423
0.197325
0.19733
0.196439
0.194638
0.191886
0.188105
0.183174
0.176806
0.167977
0.156114
0.139276
0.1135
0.0765428
0.037096
0.014483
0.0149273
0.0174934
0.0184219
0.0478201
0.0954506
0.137996
0.167418
0.185487
0.196852
0.204345
0.209392
0.212898
0.215388
0.217117
0.218218
0.218758
0.218763
0.218235
0.217149
0.215437
0.212965
0.209474
0.204449
0.196969
0.185618
0.167598
0.138191
0.095647
0.0479181
0.0184198
0.0174951
0.0198304
0.0225568
0.0586623
0.111706
0.155966
0.185292
0.202979
0.213315
0.219432
0.223133
0.22543
0.226892
0.227825
0.228386
0.228653
0.228658
0.228402
0.227854
0.226936
0.22549
0.223207
0.219519
0.213414
0.203098
0.185444
0.156144
0.111875
0.0587295
0.0225497
0.0198335
0.0219221
0.0267374
0.0691454
0.12574
0.170064
0.197533
0.213525
0.222397
0.22721
0.2298
0.231191
0.231941
0.232347
0.23256
0.232655
0.23266
0.232576
0.232374
0.231981
0.231243
0.229864
0.227283
0.22248
0.213623
0.19765
0.170186
0.125857
0.069183
0.0267252
0.0219273
0.0237373
0.0308474
0.0789328
0.137725
0.181113
0.206221
0.220141
0.227438
0.231079
0.232799
0.233551
0.233842
0.23393
0.233943
0.233941
0.233946
0.233958
0.233955
0.233878
0.233596
0.232851
0.231137
0.227501
0.22021
0.206296
0.181177
0.137787
0.0789402
0.0308305
0.0237432
0.0252919
0.0347272
0.0878134
0.147755
0.188891
0.212214
0.22434
0.230263
0.232943
0.234013
0.234338
0.234351
0.234265
0.234176
0.234127
0.234132
0.23419
0.234287
0.234381
0.234373
0.234052
0.232982
0.230303
0.22438
0.212254
0.188927
0.147772
0.0877937
0.0347062
0.025298
0.026587
0.0382217
0.0955748
0.156159
0.195358
0.216597
0.227096
0.231877
0.233811
0.23442
0.234472
0.23433
0.23416
0.234029
0.233962
0.233966
0.23404
0.234177
0.234352
0.234496
0.234444
0.233831
0.231893
0.227108
0.216603
0.195356
0.156136
0.0955316
0.038197
0.0265931
0.0276223
0.0411954
0.102003
0.162879
0.200403
0.219826
0.228954
0.232826
0.234204
0.234497
0.234381
0.234161
0.233959
0.233818
0.233749
0.233752
0.233826
0.233971
0.234174
0.234394
0.234506
0.234206
0.23282
0.22894
0.219803
0.200367
0.162824
0.101942
0.0411673
0.0276285
0.0283982
0.0435329
0.106948
0.167947
0.204091
0.222103
0.230187
0.233389
0.234377
0.234464
0.234252
0.233996
0.233789
0.233652
0.233587
0.233589
0.233657
0.233795
0.234002
0.234254
0.23446
0.234365
0.233367
0.230154
0.222057
0.204031
0.167866
0.106874
0.0435024
0.0284044
0.028915
0.0451436
0.110302
0.171344
0.206502
0.223552
0.230942
0.233709
0.234451
0.234415
0.234152
0.233884
0.23368
0.233551
0.233491
0.233492
0.233554
0.233682
0.233884
0.234147
0.234402
0.234428
0.233675
0.230896
0.223494
0.206429
0.171254
0.110221
0.0451114
0.0289213
0.029173
0.0459652
0.111996
0.17304
0.207691
0.224256
0.231302
0.233855
0.234479
0.234386
0.234102
0.23383
0.23363
0.233507
0.23345
0.23345
0.233508
0.23363
0.233827
0.234093
0.234369
0.234451
0.233815
0.23125
0.224192
0.207613
0.172947
0.111912
0.0459322
0.0291794
0.0291724
0.0459662
0.112
0.173043
0.207693
0.224258
0.231303
0.233857
0.234482
0.234389
0.234105
0.233833
0.233634
0.23351
0.233453
0.233454
0.233511
0.233634
0.23383
0.234096
0.234372
0.234454
0.233817
0.231252
0.224194
0.207615
0.172951
0.111917
0.0459332
0.0291789
0.0289132
0.0451465
0.110314
0.171353
0.206509
0.223557
0.230947
0.233715
0.234458
0.234424
0.234161
0.233893
0.23369
0.233561
0.233501
0.233501
0.233563
0.233691
0.233893
0.234156
0.23441
0.234435
0.233681
0.230901
0.223499
0.206436
0.171263
0.110234
0.0451141
0.0289197
0.0283953
0.0435374
0.106969
0.167964
0.204104
0.222112
0.230196
0.233399
0.234388
0.234477
0.234266
0.234011
0.233803
0.233667
0.233601
0.233603
0.233671
0.233809
0.234015
0.234267
0.234472
0.234375
0.233375
0.230161
0.222066
0.204043
0.167883
0.106895
0.0435065
0.0284018
0.0276186
0.0412008
0.102033
0.162909
0.200425
0.219843
0.228968
0.23284
0.234219
0.234514
0.234399
0.234178
0.233976
0.233835
0.233765
0.233767
0.233842
0.233986
0.23419
0.234409
0.23452
0.234218
0.232831
0.22895
0.219815
0.200385
0.162851
0.101971
0.0411725
0.027625
0.0265826
0.0382275
0.095613
0.156203
0.195393
0.216622
0.227117
0.231895
0.233829
0.234438
0.23449
0.234347
0.234176
0.234044
0.233976
0.23398
0.234054
0.234191
0.234366
0.23451
0.234457
0.233844
0.231904
0.227119
0.216618
0.195379
0.156171
0.0955666
0.0382024
0.0265888
0.0252872
0.0347325
0.0878591
0.147813
0.18894
0.21225
0.224368
0.230286
0.232963
0.234032
0.234354
0.234365
0.234277
0.234187
0.234136
0.23414
0.234199
0.234297
0.234392
0.234385
0.234064
0.232994
0.230314
0.224393
0.212272
0.188955
0.147813
0.0878321
0.0347112
0.0252931
0.0237324
0.0308514
0.0789844
0.1378
0.181175
0.206272
0.220179
0.227467
0.231102
0.232816
0.233564
0.233851
0.233935
0.233946
0.233943
0.233947
0.23396
0.233959
0.233883
0.233603
0.232861
0.231148
0.227514
0.220227
0.20632
0.181213
0.137834
0.0789793
0.0308341
0.0237378
0.0219173
0.0267396
0.0692016
0.125834
0.170149
0.197603
0.213576
0.222433
0.227236
0.229817
0.2312
0.231944
0.232345
0.232555
0.232648
0.232653
0.232571
0.232371
0.231981
0.231248
0.229872
0.227297
0.222498
0.213648
0.197684
0.170231
0.12591
0.0692209
0.0267265
0.0219218
0.0198263
0.0225568
0.0587242
0.111824
0.156083
0.185385
0.203047
0.213363
0.219465
0.223153
0.225439
0.226894
0.22782
0.228377
0.228643
0.228648
0.228394
0.227849
0.226936
0.225495
0.223219
0.219541
0.213445
0.203139
0.185496
0.156208
0.111941
0.0587681
0.0225485
0.0198288
0.0174895
0.0184225
0.047892
0.0955857
0.138135
0.167533
0.185574
0.196919
0.204392
0.209418
0.212914
0.215395
0.217118
0.218215
0.218752
0.218758
0.218233
0.21715
0.215444
0.212978
0.209496
0.204486
0.19702
0.185682
0.167672
0.138278
0.0957267
0.0479617
0.0184189
0.0174907
0.0149236
0.0144835
0.0370622
0.0764894
0.11348
0.139264
0.156087
0.167922
0.176752
0.183129
0.188066
0.19186
0.194625
0.196437
0.197337
0.197343
0.196455
0.194659
0.191913
0.188139
0.183205
0.176861
0.16805
0.156207
0.13938
0.113609
0.0766313
0.0371342
0.0144795
0.0149232
0.0121531
0.0108414
0.0262184
0.0528581
0.0783591
0.096417
0.10989
0.120898
0.130132
0.137775
0.144023
0.148967
0.152656
0.155113
0.156342
0.156345
0.155124
0.15268
0.149011
0.144096
0.137878
0.130262
0.121042
0.110027
0.0965343
0.0784704
0.05298
0.0262816
0.0108356
0.0121511
0.00922051
0.0071238
0.0145896
0.0262354
0.0369189
0.0462445
0.0547521
0.0627006
0.0699179
0.0762751
0.0816944
0.0861291
0.0895266
0.0918279
0.0929887
0.0929881
0.0918272
0.0895288
0.0861398
0.0817221
0.0763236
0.0699827
0.0627754
0.054829
0.0463162
0.0369781
0.0262882
0.014614
0.00711393
0.00921735
0.00574596
0.00127673
0.00515498
0.00907395
0.0131514
0.0170213
0.0206712
0.0240624
0.0271307
0.0298534
0.0322016
0.0341512
0.0356643
0.0366964
0.0372186
0.0372174
0.0366931
0.0356594
0.0341459
0.0321978
0.0298506
0.0271286
0.024061
0.020671
0.0170208
0.0131499
0.00907219
0.005152
0.00127497
0.00574338
0.00394802
0.00670134
0.00936227
0.0117463
0.0140639
0.0162267
0.0181899
0.0198479
0.0212739
0.0224924
0.0235042
0.0243053
0.0248999
0.0252946
0.0254918
0.0254921
0.0252955
0.0249013
0.0243071
0.0235057
0.022494
0.0212754
0.0198492
0.0181908
0.0162268
0.0140629
0.0117439
0.00935874
0.00669784
0.00394602
0.00356838
0.00609858
0.00869888
0.0110629
0.0134261
0.0156607
0.0177224
0.0194987
0.02104
0.0223621
0.0234687
0.0243667
0.0250512
0.0255095
0.0257385
0.0257376
0.0255066
0.0250465
0.0243605
0.0234627
0.0223551
0.0210317
0.0194874
0.0177118
0.0156535
0.0134236
0.0110658
0.00870605
0.00610756
0.00357395
0.00513349
0.00162965
0.00749824
0.0110926
0.0146783
0.0176866
0.0202698
0.0226856
0.0247888
0.026596
0.0281118
0.0293258
0.0302306
0.0308333
0.0311358
0.031137
0.0308367
0.0302351
0.0293292
0.0281113
0.0265898
0.0247797
0.022678
0.0202705
0.0177139
0.0147099
0.0111196
0.00751524
0.00163875
0.00514189
0.00869971
0.0102958
0.0132179
0.0166578
0.021809
0.0272587
0.032306
0.0367576
0.0408279
0.0444654
0.0475118
0.0499746
0.0518416
0.0530998
0.05374
0.0537558
0.0531466
0.0519164
0.0500694
0.0476052
0.0444765
0.0408065
0.0367211
0.0322593
0.0272059
0.0217697
0.0166291
0.0132181
0.0103553
0.00870851
0.0115753
0.0135026
0.0178336
0.0254646
0.0355127
0.0461338
0.0556899
0.0640983
0.0715659
0.0783058
0.0840562
0.0886687
0.0921102
0.0943937
0.0955472
0.0955843
0.0945018
0.092278
0.0888734
0.0842504
0.0784312
0.0715926
0.0640575
0.0555809
0.0459887
0.0353702
0.0253814
0.0178195
0.0135527
0.0115795
0.0144202
0.0159725
0.0226779
0.0355029
0.0536971
0.0727948
0.0889882
0.101893
0.11241
0.121469
0.128882
0.134628
0.138763
0.141396
0.142692
0.142715
0.141462
0.138864
0.134763
0.128996
0.12154
0.112369
0.10174
0.0887156
0.0724843
0.0534764
0.0353729
0.0226138
0.0160146
0.0144186
0.0171299
0.0181704
0.0284633
0.0466183
0.0724411
0.0988621
0.121157
0.137454
0.149286
0.158368
0.165411
0.170724
0.1745
0.176898
0.178066
0.178078
0.176932
0.174546
0.170769
0.165426
0.158332
0.149181
0.137275
0.12087
0.0985357
0.0721727
0.0464935
0.0283857
0.0182039
0.0171241
0.0196415
0.0205566
0.0338361
0.0579414
0.0900944
0.121464
0.146065
0.163572
0.175752
0.184385
0.190631
0.195125
0.198232
0.200179
0.201116
0.201121
0.200189
0.198241
0.195122
0.190601
0.184322
0.175652
0.163432
0.145874
0.121221
0.089919
0.0578882
0.0338002
0.0205526
0.0196351
0.0219367
0.0230502
0.0389792
0.0686775
0.105492
0.139115
0.164183
0.181645
0.193426
0.201349
0.20673
0.21039
0.212815
0.214294
0.214995
0.214994
0.21429
0.212802
0.210362
0.206683
0.201282
0.193341
0.181543
0.164064
0.138997
0.105449
0.0687233
0.0389656
0.0230448
0.0219282
0.0240371
0.0253757
0.043913
0.0787409
0.118702
0.152764
0.177343
0.194011
0.204931
0.211973
0.216501
0.219406
0.221235
0.222308
0.222803
0.222799
0.222294
0.22121
0.219367
0.216449
0.211911
0.204863
0.193942
0.17728
0.152733
0.118757
0.0788489
0.0439188
0.0253739
0.0240293
0.0258795
0.0274672
0.0483848
0.0874977
0.130023
0.163504
0.187001
0.202514
0.212372
0.218481
0.222213
0.224469
0.225806
0.226553
0.226885
0.226879
0.226535
0.225777
0.224428
0.222164
0.218429
0.212323
0.202475
0.186978
0.163515
0.130091
0.087627
0.048407
0.0274699
0.0258728
0.0274415
0.0292904
0.0522718
0.0946938
0.138484
0.171604
0.194024
0.208366
0.217176
0.222416
0.225452
0.227174
0.228126
0.228623
0.228832
0.228826
0.228606
0.228099
0.227139
0.225413
0.222379
0.217148
0.208353
0.194034
0.171646
0.138573
0.0948249
0.0523079
0.0292975
0.0274359
0.0287078
0.0308068
0.0555031
0.10043
0.144891
0.177558
0.19903
0.212351
0.220257
0.224766
0.22724
0.228548
0.229211
0.229526
0.229649
0.229644
0.229512
0.229189
0.228521
0.227214
0.224746
0.220251
0.212363
0.199065
0.177622
0.144989
0.100549
0.0555481
0.0308176
0.0287031
0.0296671
0.0319812
0.0580177
0.104796
0.149583
0.18178
0.202471
0.214985
0.222189
0.22614
0.228197
0.229206
0.229667
0.229859
0.229923
0.229919
0.229848
0.229651
0.229189
0.228184
0.226137
0.222201
0.215016
0.202524
0.181855
0.149677
0.104889
0.0580629
0.0319942
0.0296629
0.0303111
0.0327827
0.0597412
0.107757
0.152687
0.184505
0.204635
0.21659
0.223318
0.226897
0.228679
0.229497
0.229831
0.229947
0.229977
0.229974
0.22994
0.229821
0.229488
0.228677
0.226906
0.223343
0.216634
0.204697
0.184583
0.152775
0.107836
0.0597861
0.032797
0.0303073
0.0306345
0.0331886
0.0606164
0.109247
0.154234
0.185845
0.205683
0.217352
0.223838
0.22723
0.228878
0.229602
0.229876
0.229956
0.229969
0.229967
0.22995
0.229869
0.229598
0.228881
0.227246
0.223869
0.217401
0.205748
0.185923
0.154318
0.10932
0.0606601
0.0332033
0.0306309
0.0306349
0.0331868
0.0606147
0.109249
0.154237
0.185848
0.205685
0.217352
0.223836
0.227228
0.228874
0.229597
0.229871
0.229951
0.229964
0.229962
0.229946
0.229865
0.229594
0.228878
0.227244
0.223868
0.2174
0.205749
0.185924
0.154319
0.10932
0.0606572
0.0332012
0.0306311
0.0303121
0.0327771
0.059736
0.107762
0.152696
0.184513
0.20464
0.21659
0.223313
0.226888
0.228668
0.229484
0.229818
0.229933
0.229963
0.229961
0.229927
0.229809
0.229477
0.228668
0.226899
0.223339
0.216632
0.204699
0.184586
0.152778
0.107838
0.0597774
0.0327907
0.030308
0.0296687
0.031972
0.0580086
0.104805
0.149598
0.181793
0.202478
0.214985
0.222182
0.226128
0.228181
0.229187
0.229647
0.229839
0.229903
0.2299
0.229829
0.229634
0.229174
0.228172
0.226128
0.222196
0.215015
0.202527
0.18186
0.149681
0.10489
0.0580483
0.0319842
0.0296642
0.0287099
0.0307943
0.0554878
0.100445
0.144909
0.177573
0.199038
0.212351
0.22025
0.224752
0.227222
0.228527
0.22919
0.229505
0.229628
0.229623
0.229492
0.229171
0.228505
0.227202
0.224738
0.220247
0.212365
0.199071
0.177629
0.144994
0.100548
0.0555249
0.0308042
0.0287049
0.0274439
0.0292752
0.0522499
0.094712
0.138504
0.17162
0.194033
0.208368
0.21717
0.222404
0.225437
0.227158
0.228109
0.228606
0.228816
0.228811
0.228591
0.228085
0.227127
0.225405
0.222375
0.217149
0.20836
0.194043
0.171656
0.138577
0.0948207
0.0522781
0.0292818
0.0274383
0.0258822
0.0274505
0.0483594
0.0875199
0.130043
0.16352
0.187011
0.202519
0.212371
0.218477
0.222206
0.224462
0.2258
0.226548
0.22688
0.226875
0.226532
0.225774
0.224426
0.222165
0.218434
0.212332
0.202488
0.186994
0.163529
0.130097
0.0876227
0.0483752
0.0274532
0.0258758
0.0240397
0.0253587
0.0438861
0.078765
0.118726
0.152778
0.177353
0.19402
0.204938
0.21198
0.216509
0.219416
0.221247
0.222322
0.222818
0.222814
0.222309
0.221223
0.21938
0.216462
0.211926
0.204882
0.193965
0.177304
0.152752
0.118766
0.0788465
0.0438886
0.0253578
0.0240328
0.0219392
0.0230349
0.0389518
0.0686929
0.105502
0.139117
0.16419
0.181656
0.193442
0.20137
0.206757
0.210423
0.212853
0.214335
0.215036
0.215034
0.214327
0.212836
0.210393
0.206712
0.201311
0.19337
0.181574
0.164095
0.139021
0.105462
0.0687234
0.0389388
0.0230313
0.0219322
0.0196428
0.0205468
0.033805
0.057928
0.0900827
0.121449
0.146065
0.163585
0.175776
0.184423
0.190682
0.195187
0.198299
0.200248
0.201185
0.201187
0.200251
0.198298
0.195173
0.190647
0.184363
0.175689
0.16347
0.145912
0.121255
0.0899372
0.0578799
0.0337736
0.0205444
0.0196379
0.0171334
0.0181886
0.0284138
0.0465897
0.0724152
0.0988389
0.121147
0.137464
0.149319
0.158428
0.165491
0.170818
0.174597
0.176996
0.178161
0.178168
0.177016
0.174623
0.17084
0.165488
0.158387
0.149225
0.137316
0.120918
0.0985801
0.0722002
0.0464865
0.0283489
0.0182189
0.0171296
0.0144247
0.0159907
0.0226422
0.0354791
0.0536684
0.0727723
0.0889816
0.101912
0.112464
0.121573
0.128999
0.134761
0.138887
0.141517
0.142807
0.142823
0.141561
0.138954
0.13485
0.12907
0.121612
0.11242
0.101784
0.0887662
0.0725295
0.0534932
0.0353741
0.0225888
0.0160277
0.0144245
0.0115806
0.0135221
0.0178336
0.025435
0.0354869
0.0461098
0.0556751
0.0641039
0.0715987
0.0783886
0.0841825
0.0888147
0.0922566
0.0945334
0.0956776
0.0957049
0.0946124
0.0923776
0.0889578
0.084311
0.0784712
0.0716079
0.0640631
0.0555857
0.0459958
0.0353741
0.0253653
0.0178238
0.0135649
0.0115849
0.00870507
0.0103145
0.0132186
0.0166372
0.0217774
0.0272157
0.0322693
0.0367237
0.0408009
0.0444568
0.0475603
0.0500305
0.0518946
0.053148
0.0537834
0.053795
0.0531821
0.0519482
0.0500945
0.0476019
0.0444495
0.0407727
0.0366863
0.0322263
0.0271695
0.0217428
0.0166118
0.0132191
0.0103618
0.00871264
0.00513718
0.00163226
0.00750291
0.011102
0.0146918
0.0176976
0.020258
0.0226676
0.0247691
0.0265759
0.0280921
0.029303
0.0302054
0.0308065
0.0311078
0.0311083
0.0308078
0.0302066
0.0293027
0.0280879
0.0265676
0.0247592
0.0226615
0.0202779
0.0177244
0.0147181
0.0111238
0.00751704
0.00163965
0.00514432
0.00357071
0.00610259
0.00870292
0.0110665
0.0134289
0.0156625
0.0177232
0.0194993
0.0210398
0.022362
0.0234689
0.0243687
0.0250538
0.0255124
0.0257417
0.0257411
0.0255103
0.0250504
0.0243642
0.0234645
0.0223569
0.0210339
0.0194916
0.0177168
0.0156586
0.0134285
0.0110699
0.00870935
0.00610993
0.00357528
0.00336145
0.00571794
0.00824125
0.0105728
0.0129179
0.015136
0.017172
0.0189158
0.0204418
0.0217679
0.0228825
0.0237754
0.0244443
0.0248919
0.0251169
0.0251182
0.0248959
0.0244507
0.023784
0.022892
0.0217786
0.0204532
0.0189293
0.0171833
0.0151423
0.0129183
0.0105676
0.00823206
0.00570672
0.00335395
0.00487019
0.00249634
0.0106606
0.0159061
0.0209755
0.0254987
0.0293654
0.0323712
0.0346818
0.0364178
0.0377203
0.0386911
0.0393914
0.0398488
0.0400762
0.0400785
0.0398558
0.0394029
0.0387072
0.0377404
0.036441
0.0347058
0.0323915
0.0293656
0.0254621
0.0209241
0.0158577
0.0106286
0.00246711
0.00485799
0.00827775
0.012975
0.0172641
0.0210516
0.0240511
0.0271412
0.030172
0.0330671
0.0358605
0.0382936
0.0403755
0.0420683
0.0433529
0.0442182
0.0446563
0.0446633
0.0442403
0.0433925
0.0421274
0.0404555
0.0384205
0.0360013
0.0331886
0.0302032
0.0271441
0.0240518
0.0210534
0.0172379
0.0128711
0.00826321
0.0110552
0.018117
0.023242
0.0248765
0.0287495
0.0348382
0.0415573
0.0478479
0.053282
0.0577609
0.0614862
0.0645367
0.0668875
0.0684843
0.0692801
0.0692565
0.0684164
0.0667842
0.0644143
0.061367
0.0576836
0.0533068
0.0478874
0.0415901
0.0347998
0.0287824
0.0248917
0.023196
0.0180337
0.0110451
0.0137957
0.022079
0.0263478
0.0295606
0.0384743
0.051073
0.0627159
0.0722769
0.0800905
0.0865656
0.0918609
0.0960926
0.0994661
0.101896
0.103127
0.103094
0.101802
0.0993331
0.0959371
0.0917366
0.0865241
0.0801575
0.0724398
0.0629327
0.0510875
0.0383764
0.0295769
0.0263348
0.0220141
0.013793
0.016425
0.0255487
0.0285936
0.0359924
0.0513466
0.0696477
0.0873219
0.101937
0.113567
0.12253
0.129418
0.134663
0.138554
0.141177
0.142486
0.142457
0.141099
0.138452
0.134572
0.129385
0.122596
0.113757
0.102257
0.0877863
0.069931
0.0514334
0.0360473
0.0286137
0.0255105
0.0164291
0.0189
0.0282344
0.0310332
0.0437364
0.063776
0.0876597
0.110976
0.129487
0.143033
0.152913
0.160142
0.165402
0.169115
0.17151
0.172684
0.172678
0.171498
0.169115
0.165436
0.160234
0.153076
0.143265
0.129795
0.111377
0.0880425
0.063938
0.0437783
0.0311436
0.0282446
0.0189068
0.0211821
0.0303396
0.0342861
0.0510718
0.0751667
0.104082
0.13051
0.150507
0.16484
0.174958
0.182062
0.187008
0.190351
0.19243
0.193431
0.193438
0.192453
0.1904
0.187093
0.182191
0.175129
0.165049
0.150754
0.130769
0.104277
0.0752125
0.0510418
0.034404
0.0303535
0.0211914
0.0232176
0.0320133
0.0376419
0.0573774
0.0851969
0.11818
0.145673
0.165969
0.180286
0.190165
0.196887
0.201392
0.20432
0.20608
0.206911
0.206922
0.206116
0.204384
0.201487
0.197012
0.190314
0.180451
0.166139
0.145816
0.118216
0.0850881
0.0572964
0.0377415
0.0320276
0.0232273
0.025008
0.0333805
0.0409215
0.0633391
0.0950507
0.12985
0.157342
0.177255
0.191083
0.200438
0.206637
0.210655
0.213173
0.214636
0.215311
0.215323
0.214672
0.213233
0.210739
0.206739
0.200552
0.191197
0.177356
0.157404
0.129829
0.0949173
0.0632413
0.0409891
0.0333949
0.0250174
0.0265345
0.0345015
0.0439132
0.0686386
0.103646
0.138995
0.166137
0.185401
0.198549
0.207271
0.212907
0.216447
0.218589
0.219792
0.220333
0.220343
0.219821
0.218636
0.21651
0.212978
0.207343
0.198612
0.18544
0.166134
0.13892
0.103487
0.0685382
0.0439422
0.0345159
0.0265434
0.0277789
0.0354058
0.0464661
0.0730545
0.110547
0.145979
0.1726
0.191167
0.203626
0.21173
0.216841
0.219959
0.221781
0.222769
0.223202
0.223209
0.22279
0.221812
0.219998
0.21688
0.211761
0.20364
0.191152
0.172542
0.145862
0.110379
0.0729614
0.046462
0.0354205
0.0277873
0.0287257
0.0360953
0.0484214
0.0763805
0.115668
0.151027
0.17714
0.195093
0.20696
0.214544
0.219226
0.222006
0.223579
0.224404
0.224755
0.224759
0.224416
0.223596
0.222022
0.219237
0.214541
0.206935
0.195036
0.177043
0.150887
0.115508
0.0763157
0.0484217
0.036111
0.0287338
0.0293632
0.0365633
0.0497535
0.0785876
0.119034
0.154302
0.180033
0.197537
0.208977
0.216191
0.22057
0.223116
0.224521
0.225237
0.225533
0.225535
0.225241
0.224526
0.223116
0.22056
0.216163
0.208924
0.197453
0.179913
0.154152
0.118883
0.0785367
0.0497537
0.0365789
0.029371
0.0296833
0.0368001
0.0504325
0.0796956
0.120702
0.155913
0.181442
0.198712
0.20993
0.216952
0.221175
0.223602
0.224922
0.225583
0.225852
0.225853
0.225584
0.22492
0.223594
0.221154
0.216911
0.209863
0.198614
0.181313
0.155761
0.120557
0.0796502
0.0504322
0.0368151
0.0296911
0.0296824
0.0367985
0.0504323
0.0796933
0.1207
0.155913
0.181444
0.198715
0.209935
0.216958
0.221181
0.223608
0.224927
0.225588
0.225857
0.225858
0.225589
0.224925
0.223599
0.221159
0.216916
0.209868
0.198618
0.181316
0.155762
0.120556
0.0796465
0.0504315
0.0368127
0.0296902
0.0293604
0.0365586
0.0497531
0.0785809
0.119029
0.154302
0.180039
0.197549
0.208993
0.216208
0.220587
0.223133
0.224536
0.225251
0.225547
0.225548
0.225255
0.224539
0.223131
0.220574
0.216177
0.208938
0.197464
0.179922
0.154157
0.118882
0.078527
0.0497522
0.0365717
0.0293683
0.0287212
0.0360874
0.0484234
0.0763718
0.11566
0.15103
0.177154
0.195114
0.206986
0.214572
0.219254
0.222032
0.223603
0.224426
0.224775
0.224779
0.224435
0.223616
0.222043
0.219258
0.214563
0.206955
0.195055
0.177059
0.150897
0.115509
0.0763062
0.048423
0.036099
0.0287293
0.0277729
0.0353958
0.0464922
0.0730488
0.110542
0.145988
0.172623
0.191199
0.203662
0.211767
0.216877
0.219992
0.22181
0.222795
0.223225
0.223231
0.222812
0.221836
0.220023
0.216907
0.211788
0.203666
0.191177
0.172565
0.145881
0.110391
0.0729636
0.0464954
0.0354056
0.027781
0.0265273
0.034491
0.0439677
0.0686374
0.103643
0.139012
0.166172
0.185445
0.198596
0.207317
0.212948
0.216483
0.218618
0.219816
0.220354
0.220363
0.219842
0.218659
0.216535
0.213006
0.207373
0.198642
0.185471
0.166163
0.138946
0.103508
0.0685506
0.0439997
0.0344993
0.0265354
0.025
0.03337
0.0409884
0.0633338
0.095046
0.129876
0.15739
0.177311
0.191138
0.200489
0.20668
0.210688
0.213197
0.214653
0.215325
0.215335
0.214685
0.21325
0.21076
0.206765
0.200581
0.191229
0.17739
0.157439
0.129858
0.0949387
0.063254
0.0410512
0.0333774
0.0250081
0.0232092
0.0320036
0.0377147
0.0573658
0.0851839
0.118214
0.145734
0.166036
0.180347
0.190215
0.196924
0.201416
0.204332
0.206083
0.20691
0.20692
0.206117
0.204391
0.201501
0.197033
0.190341
0.180482
0.166174
0.145853
0.11825
0.0851035
0.0573029
0.0378007
0.0320096
0.0232169
0.0211738
0.0303318
0.0343581
0.0510617
0.0751763
0.104143
0.13059
0.150584
0.1649
0.175
0.182084
0.187011
0.190339
0.192409
0.193406
0.193414
0.192435
0.190391
0.187095
0.182205
0.175152
0.165079
0.150789
0.130806
0.104311
0.0752198
0.0510407
0.0344564
0.0303358
0.0211804
0.0188923
0.0282273
0.0310939
0.0437502
0.0638114
0.0877547
0.111077
0.129563
0.14308
0.152932
0.160133
0.165369
0.169065
0.171451
0.172625
0.172624
0.171454
0.169084
0.16542
0.160234
0.153088
0.143287
0.129823
0.111412
0.0880753
0.063949
0.0437854
0.0311845
0.0282285
0.0188963
0.0164151
0.0255176
0.0286025
0.0360309
0.051398
0.0697242
0.0874125
0.101988
0.113575
0.122498
0.129352
0.134573
0.138451
0.141069
0.142384
0.142365
0.141022
0.138393
0.134529
0.129357
0.12258
0.113752
0.102264
0.0877972
0.0699601
0.051476
0.0360786
0.0286141
0.0254784
0.0164164
0.0137854
0.0220449
0.0263371
0.0295493
0.0384897
0.0511071
0.0627586
0.072291
0.0800686
0.0865074
0.0917715
0.0959858
0.0993582
0.101787
0.103025
0.103002
0.101723
0.0992715
0.0958805
0.0916917
0.0864914
0.0801362
0.0724328
0.0629405
0.0511255
0.0384193
0.0295576
0.0263204
0.0219845
0.013781
0.0110451
0.0180819
0.023209
0.0248638
0.028746
0.0348641
0.0416062
0.0478611
0.0532853
0.0577134
0.0614198
0.0644659
0.0668174
0.0684188
0.0692208
0.0692035
0.0683691
0.0667423
0.0643777
0.0613361
0.0576601
0.0533102
0.0478971
0.0416416
0.0348407
0.0287681
0.0248704
0.0231649
0.0180083
0.0110349
0.00826881
0.0129396
0.0172453
0.0210451
0.0240454
0.0271397
0.0301799
0.0331292
0.0359348
0.0383672
0.0404303
0.0421228
0.0434075
0.0442728
0.0447107
0.0447176
0.0442939
0.043444
0.0421759
0.0405082
0.0384754
0.0360531
0.0332303
0.0301993
0.0271371
0.0240408
0.0210418
0.0172194
0.0128535
0.00825583
0.0048643
0.0024898
0.0106492
0.0158864
0.0209489
0.0254737
0.0293603
0.0323734
0.0346812
0.0364135
0.0377126
0.0386817
0.0393804
0.0398364
0.0400625
0.0400638
0.0398402
0.0393866
0.0386904
0.0377235
0.0364256
0.0346927
0.0323796
0.0293362
0.0254318
0.0209003
0.015843
0.0106198
0.00246348
0.00485336
0.00335793
0.00571205
0.00823441
0.0105655
0.0129106
0.0151292
0.0171659
0.0189098
0.0204363
0.021762
0.022876
0.0237675
0.0244357
0.0248827
0.025107
0.0251079
0.0248852
0.0244398
0.023773
0.0228819
0.0217685
0.0204429
0.0189174
0.0171711
0.0151307
0.0129079
0.010559
0.00822534
0.00570195
0.00335135
0.00334148
0.00566564
0.0081409
0.0104434
0.0127355
0.0148967
0.0168832
0.0185893
0.0200767
0.0213624
0.0224408
0.0233074
0.0239593
0.0243946
0.0246119
0.0246107
0.024391
0.0239535
0.0232998
0.0224318
0.0213531
0.0200685
0.0185841
0.0168825
0.0149015
0.0127453
0.0104568
0.00815466
0.00568044
0.00335135
0.00487066
0.00310366
0.0120569
0.0185091
0.0245971
0.0300242
0.0347492
0.0386942
0.0418966
0.0444611
0.046478
0.0480204
0.0491395
0.0498686
0.0502279
0.0502274
0.0498675
0.0491392
0.0480229
0.0464867
0.0444833
0.0419387
0.0387634
0.0348581
0.0301367
0.0246874
0.0185555
0.0120703
0.00316145
0.00488607
0.00821661
0.0143385
0.0196068
0.025214
0.0301224
0.0347456
0.0389746
0.04261
0.0453816
0.0474969
0.0490917
0.0502639
0.051092
0.0516254
0.0518888
0.0518922
0.051635
0.0511071
0.0502839
0.0491221
0.0475623
0.0454746
0.042712
0.0390895
0.0347978
0.0300898
0.0251394
0.0195877
0.0143977
0.00822956
0.0109686
0.0206568
0.0275662
0.0308563
0.033817
0.0369625
0.0401231
0.0433554
0.04663
0.0498992
0.0530429
0.0557844
0.0579617
0.0594653
0.0602201
0.0601867
0.0593642
0.0577921
0.0555501
0.0527951
0.0498144
0.0466452
0.043402
0.0401439
0.0369732
0.0337059
0.0307589
0.0276013
0.0207522
0.0109823
0.0136399
0.0258886
0.0327532
0.0353506
0.0377093
0.0436352
0.0511846
0.0584288
0.0649714
0.0708821
0.0761661
0.0806401
0.0839845
0.0861719
0.087275
0.087291
0.0862094
0.0840034
0.0805381
0.0759734
0.0706335
0.0648666
0.0584311
0.0512451
0.0439208
0.037807
0.0353378
0.0328411
0.0259924
0.0136486
0.0161991
0.0305634
0.0366385
0.0385252
0.0434437
0.0552283
0.0676638
0.0789742
0.0886052
0.0967545
0.10372
0.109431
0.113704
0.11653
0.117959
0.11801
0.116664
0.113864
0.109538
0.103733
0.0966699
0.0884763
0.0787986
0.0674826
0.0553141
0.04365
0.0385821
0.0367681
0.0306793
0.0162007
0.01859
0.0345508
0.0395398
0.0412724
0.0516373
0.067889
0.0845936
0.100701
0.114885
0.126146
0.134879
0.141345
0.145944
0.148922
0.150396
0.150412
0.148957
0.145966
0.141312
0.134766
0.125935
0.114601
0.100386
0.0842913
0.0677552
0.0516819
0.041348
0.039636
0.0346421
0.0185849
0.0207899
0.0379729
0.0414398
0.0446719
0.060768
0.0805919
0.10173
0.122304
0.138789
0.150907
0.15981
0.166239
0.170705
0.173536
0.174912
0.174911
0.173525
0.170669
0.166162
0.159682
0.15073
0.138563
0.121959
0.101424
0.0804696
0.0607345
0.0447199
0.041517
0.0380175
0.0207793
0.0227727
0.0408925
0.0430123
0.0491762
0.0696339
0.0923919
0.117789
0.140059
0.156934
0.169186
0.17795
0.184123
0.188318
0.190928
0.192178
0.19217
0.190902
0.18827
0.184047
0.177848
0.169064
0.156788
0.139877
0.117613
0.0923864
0.0696924
0.0490191
0.0430545
0.0409092
0.0227592
0.0245152
0.0433092
0.0444053
0.0540321
0.077154
0.103126
0.131167
0.153574
0.170251
0.182208
0.190628
0.196447
0.200326
0.202697
0.203819
0.203811
0.202672
0.200284
0.19639
0.19056
0.182134
0.170172
0.153494
0.131119
0.103183
0.0772293
0.0538599
0.0444434
0.0433095
0.0245003
0.0259979
0.045256
0.0456389
0.0586721
0.0836937
0.11279
0.141504
0.163693
0.179883
0.191352
0.199322
0.204743
0.208294
0.210431
0.211431
0.211425
0.210413
0.208266
0.204708
0.199286
0.191321
0.179863
0.163694
0.141557
0.112929
0.0838057
0.0585514
0.0456771
0.0452426
0.0259823
0.0272047
0.0467705
0.0466963
0.0624687
0.0889542
0.120471
0.149285
0.171072
0.18671
0.197654
0.205162
0.210191
0.213432
0.215354
0.216244
0.21624
0.215344
0.213419
0.210179
0.205156
0.197662
0.186741
0.171139
0.149413
0.120677
0.0891245
0.0624866
0.0467376
0.0467466
0.0271886
0.0281227
0.047891
0.047603
0.0653105
0.0928319
0.126051
0.154816
0.176198
0.191351
0.201834
0.208939
0.213632
0.216611
0.218352
0.219152
0.219151
0.218351
0.216611
0.213638
0.208958
0.201875
0.191422
0.176313
0.154991
0.126289
0.0930165
0.065352
0.0476312
0.0478591
0.0281064
0.0287416
0.0486395
0.0484025