/*--------------------------------*- C++ -*----------------------------------*\
| =========                 |                                                 |
| \\      /  F ield         | OpenFOAM: The Open Source CFD Toolbox           |
|  \\    /   O peration     | Version:  2312                                  |
|   \\  /    A nd           | Website:  www.openfoam.com                      |
|    \\/     M anipulation  |                                                 |
\*---------------------------------------------------------------------------*/
FoamFile
{
    version     2.0;
    format      ascii;
    arch        "LSB;label=32;scalar=64";
    class       volScalarField;
    location    "1000";
    object      epsilon;
}
// * * * * * * * * * * * * * * * * * * * * * * * * * * * * * * * * * * * * * //

dimensions      [0 2 -3 0 0 0 0];

internalField   nonuniform List<scalar> 
27000
(
0.00152645
0.000224794
0.000111014
7.0256e-05
5.21873e-05
4.18967e-05
3.5183e-05
3.05336e-05
2.71907e-05
2.47438e-05
2.29436e-05
2.16233e-05
2.06904e-05
2.00977e-05
1.98104e-05
1.98113e-05
2.01004e-05
2.06951e-05
2.16298e-05
2.29498e-05
2.47514e-05
2.71995e-05
3.05432e-05
3.51917e-05
4.19003e-05
5.21757e-05
7.02038e-05
0.000110856
0.000224349
0.00152353
0.000150798
3.25333e-05
1.39317e-05
9.33526e-06
7.21447e-06
5.98685e-06
5.15173e-06
4.54118e-06
4.0837e-06
3.74136e-06
3.48721e-06
3.30055e-06
3.16829e-06
3.08367e-06
3.04242e-06
3.04235e-06
3.08343e-06
3.16775e-06
3.29946e-06
3.48514e-06
3.73813e-06
4.079e-06
4.53468e-06
5.14309e-06
5.97574e-06
7.19962e-06
9.31264e-06
1.38903e-05
3.24461e-05
0.000150555
0.000100173
1.53542e-05
5.15101e-06
2.57262e-06
1.92054e-06
1.63248e-06
1.45193e-06
1.32208e-06
1.22389e-06
1.14909e-06
1.09262e-06
1.05081e-06
1.02105e-06
1.00185e-06
9.92391e-07
9.92253e-07
1.00142e-06
1.02028e-06
1.04962e-06
1.09093e-06
1.14679e-06
1.22104e-06
1.31885e-06
1.4487e-06
1.62972e-06
1.91815e-06
2.56768e-06
5.12854e-06
1.52917e-05
0.000100044
6.66996e-05
1.03113e-05
2.85279e-06
1.39672e-06
9.98495e-07
8.55762e-07
7.82196e-07
7.33633e-07
6.98111e-07
6.71417e-07
6.51154e-07
6.36049e-07
6.25279e-07
6.18311e-07
6.14848e-07
6.1475e-07
6.18014e-07
6.24776e-07
6.35338e-07
6.5025e-07
6.70391e-07
6.97075e-07
7.32792e-07
7.81851e-07
8.56122e-07
9.99186e-07
1.39557e-06
2.84263e-06
1.02771e-05
6.66606e-05
4.92753e-05
7.28186e-06
2.05613e-06
1.04448e-06
7.51795e-07
6.4253e-07
5.92736e-07
5.64179e-07
5.45261e-07
5.32819e-07
5.23636e-07
5.16704e-07
5.11746e-07
5.08532e-07
5.06925e-07
5.06861e-07
5.08343e-07
5.11447e-07
5.16329e-07
5.2325e-07
5.3257e-07
5.45117e-07
5.64272e-07
5.93222e-07
6.43341e-07
7.52473e-07
1.04364e-06
2.05009e-06
7.26416e-06
4.92721e-05
3.86914e-05
5.63109e-06
1.63672e-06
8.79805e-07
6.51732e-07
5.62238e-07
5.22745e-07
5.02256e-07
4.90138e-07
4.82472e-07
4.77287e-07
4.73619e-07
4.71065e-07
4.69429e-07
4.68613e-07
4.68577e-07
4.69326e-07
4.70916e-07
4.73462e-07
4.77177e-07
4.82477e-07
4.90298e-07
5.02623e-07
5.23292e-07
5.62735e-07
6.51931e-07
8.78758e-07
1.63241e-06
5.62109e-06
3.87013e-05
3.16935e-05
4.61027e-06
1.39283e-06
7.83246e-07
5.97904e-07
5.2483e-07
4.91974e-07
4.75884e-07
4.67234e-07
4.62183e-07
4.59016e-07
4.56923e-07
4.55527e-07
4.54654e-07
4.54225e-07
4.54209e-07
4.54612e-07
4.55477e-07
4.56895e-07
4.5905e-07
4.62316e-07
4.6749e-07
4.76256e-07
4.92383e-07
5.251e-07
5.97749e-07
7.82055e-07
1.38945e-06
4.60445e-06
3.17079e-05
2.682e-05
3.92275e-06
1.23297e-06
7.20331e-07
5.63274e-07
5.0315e-07
4.7629e-07
4.63559e-07
4.57175e-07
4.53743e-07
4.51751e-07
4.50515e-07
4.49724e-07
4.49243e-07
4.4901e-07
4.49007e-07
4.49238e-07
4.49731e-07
4.50553e-07
4.51844e-07
4.53907e-07
4.5741e-07
4.63833e-07
4.7652e-07
5.03199e-07
5.62958e-07
7.19216e-07
1.23053e-06
3.91999e-06
2.68387e-05
2.32536e-05
3.42898e-06
1.11825e-06
6.7605e-07
5.39773e-07
4.89306e-07
4.67295e-07
4.57256e-07
4.52526e-07
4.5018e-07
4.48922e-07
4.48184e-07
4.47727e-07
4.47452e-07
4.47321e-07
4.47325e-07
4.47465e-07
4.47758e-07
4.48245e-07
4.49022e-07
4.50321e-07
4.52694e-07
4.57414e-07
4.67372e-07
4.8921e-07
5.39408e-07
6.7514e-07
1.11665e-06
3.42809e-06
2.32708e-05
2.06505e-05
3.06775e-06
1.03294e-06
6.43776e-07
5.25472e-07
4.80581e-07
4.61879e-07
4.53796e-07
4.50245e-07
4.48633e-07
4.4784e-07
4.47402e-07
4.47134e-07
4.46972e-07
4.46896e-07
4.46902e-07
4.46991e-07
4.4717e-07
4.47459e-07
4.47921e-07
4.4873e-07
4.50341e-07
4.53855e-07
4.6185e-07
4.80402e-07
5.25075e-07
6.43091e-07
1.03198e-06
3.06795e-06
2.06656e-05
1.87492e-05
2.80337e-06
9.69225e-07
6.19249e-07
5.13953e-07
4.74446e-07
4.58393e-07
4.51764e-07
4.49044e-07
4.47919e-07
4.4742e-07
4.47162e-07
4.47005e-07
4.46908e-07
4.46863e-07
4.46869e-07
4.46926e-07
4.47036e-07
4.47205e-07
4.47473e-07
4.47972e-07
4.4908e-07
4.51756e-07
4.58308e-07
4.74249e-07
5.13619e-07
6.18781e-07
9.68722e-07
2.80421e-06
1.87626e-05
1.73789e-05
2.61244e-06
9.22515e-07
6.0107e-07
5.05304e-07
4.70009e-07
4.56043e-07
4.50503e-07
4.48366e-07
4.4756e-07
4.47243e-07
4.47093e-07
4.47002e-07
4.46944e-07
4.46917e-07
4.46921e-07
4.46958e-07
4.47023e-07
4.47119e-07
4.4727e-07
4.47578e-07
4.48361e-07
4.50457e-07
4.55937e-07
4.69829e-07
5.05051e-07
6.00778e-07
9.22322e-07
2.61365e-06
1.73912e-05
1.64295e-05
2.47989e-06
8.89705e-07
5.88063e-07
4.99165e-07
4.66924e-07
4.54478e-07
4.49713e-07
4.4797e-07
4.47368e-07
4.4716e-07
4.47073e-07
4.47022e-07
4.46988e-07
4.4697e-07
4.46973e-07
4.46996e-07
4.47034e-07
4.47085e-07
4.47166e-07
4.47361e-07
4.4794e-07
4.49648e-07
4.5437e-07
4.66772e-07
4.98983e-07
5.87912e-07
8.89707e-07
2.48131e-06
1.6441e-05
1.58305e-05
2.39614e-06
8.68804e-07
5.79649e-07
4.9523e-07
4.64979e-07
4.53518e-07
4.49247e-07
4.47748e-07
4.47266e-07
4.4712e-07
4.47069e-07
4.47039e-07
4.47018e-07
4.47007e-07
4.47009e-07
4.47023e-07
4.47044e-07
4.47071e-07
4.47114e-07
4.47245e-07
4.47705e-07
4.49176e-07
4.53415e-07
4.6485e-07
4.95094e-07
5.79562e-07
8.68913e-07
2.39768e-06
1.58417e-05
1.55403e-05
2.3555e-06
8.58617e-07
5.75533e-07
4.93312e-07
4.64041e-07
4.53064e-07
4.49034e-07
4.47652e-07
4.47225e-07
4.47107e-07
4.47071e-07
4.47051e-07
4.47036e-07
4.47027e-07
4.47028e-07
4.47038e-07
4.47052e-07
4.47068e-07
4.47094e-07
4.47198e-07
4.47604e-07
4.48961e-07
4.52966e-07
4.63925e-07
4.93198e-07
5.75475e-07
8.58773e-07
2.35709e-06
1.55515e-05
1.55393e-05
2.35529e-06
8.58563e-07
5.75517e-07
4.93306e-07
4.64041e-07
4.53068e-07
4.4904e-07
4.47659e-07
4.47233e-07
4.47114e-07
4.47078e-07
4.47057e-07
4.47042e-07
4.47033e-07
4.47034e-07
4.47044e-07
4.47059e-07
4.47075e-07
4.47102e-07
4.47206e-07
4.47613e-07
4.4897e-07
4.52974e-07
4.6393e-07
4.93197e-07
5.75463e-07
8.58723e-07
2.3569e-06
1.55506e-05
1.58274e-05
2.3955e-06
8.68636e-07
5.79596e-07
4.95212e-07
4.6498e-07
4.5353e-07
4.49265e-07
4.4777e-07
4.47289e-07
4.47143e-07
4.4709e-07
4.47058e-07
4.47036e-07
4.47024e-07
4.47026e-07
4.4704e-07
4.47064e-07
4.47092e-07
4.47137e-07
4.4727e-07
4.47732e-07
4.49201e-07
4.53438e-07
4.64864e-07
4.95091e-07
5.79525e-07
8.68761e-07
2.3971e-06
1.5839e-05
1.64242e-05
2.47878e-06
8.89405e-07
5.87965e-07
4.99128e-07
4.66922e-07
4.54496e-07
4.49743e-07
4.48006e-07
4.47405e-07
4.47196e-07
4.47107e-07
4.47053e-07
4.47016e-07
4.46997e-07
4.47e-07
4.47024e-07
4.47064e-07
4.47119e-07
4.47204e-07
4.47401e-07
4.47982e-07
4.4969e-07
4.54407e-07
4.66795e-07
4.98978e-07
5.87848e-07
8.89449e-07
2.48031e-06
1.64363e-05
1.73715e-05
2.6108e-06
9.22046e-07
6.00898e-07
5.05238e-07
4.69998e-07
4.56066e-07
4.50544e-07
4.48416e-07
4.47612e-07
4.47292e-07
4.47137e-07
4.47042e-07
4.4698e-07
4.4695e-07
4.46955e-07
4.46993e-07
4.47062e-07
4.47163e-07
4.47318e-07
4.47631e-07
4.48417e-07
4.50514e-07
4.55987e-07
4.6986e-07
5.05041e-07
6.00675e-07
9.21942e-07
2.61218e-06
1.73843e-05
1.87395e-05
2.80108e-06
9.68533e-07
6.18983e-07
5.13846e-07
4.74422e-07
4.58417e-07
4.51815e-07
4.49106e-07
4.47982e-07
4.47478e-07
4.47213e-07
4.4705e-07
4.46948e-07
4.469e-07
4.46906e-07
4.46966e-07
4.4708e-07
4.47254e-07
4.47529e-07
4.48034e-07
4.49146e-07
4.51822e-07
4.58366e-07
4.74283e-07
5.13601e-07
6.18639e-07
9.682e-07
2.80219e-06
1.87531e-05
2.06382e-05
3.06464e-06
1.03195e-06
6.43386e-07
5.25314e-07
4.8054e-07
4.61903e-07
4.53853e-07
4.50315e-07
4.48702e-07
4.47902e-07
4.47454e-07
4.47178e-07
4.4701e-07
4.46932e-07
4.46938e-07
4.4703e-07
4.47214e-07
4.4751e-07
4.47978e-07
4.48793e-07
4.50408e-07
4.53921e-07
4.61907e-07
4.80431e-07
5.2504e-07
6.42896e-07
1.03129e-06
3.06527e-06
2.0653e-05
2.32384e-05
3.42478e-06
1.11685e-06
6.75502e-07
5.39566e-07
4.89246e-07
4.67316e-07
4.57316e-07
4.52596e-07
4.50247e-07
4.48977e-07
4.48228e-07
4.47761e-07
4.4748e-07
4.47347e-07
4.47352e-07
4.47496e-07
4.47795e-07
4.48288e-07
4.49071e-07
4.50375e-07
4.5275e-07
4.57467e-07
4.67412e-07
4.89216e-07
5.39334e-07
6.74866e-07
1.11573e-06
3.42459e-06
2.32544e-05
2.68014e-05
3.91711e-06
1.23103e-06
7.19574e-07
5.62989e-07
5.0306e-07
4.76298e-07
4.63607e-07
4.5723e-07
4.53789e-07
4.51783e-07
4.50533e-07
4.49733e-07
4.49247e-07
4.49015e-07
4.49015e-07
4.49251e-07
4.49751e-07
4.50579e-07
4.51874e-07
4.53938e-07
4.57437e-07
4.63851e-07
4.76517e-07
5.0315e-07
5.62811e-07
7.18808e-07
1.2293e-06
3.91551e-06
2.68178e-05
3.16728e-05
4.60267e-06
1.39013e-06
7.82217e-07
5.97497e-07
5.24687e-07
4.91944e-07
4.75891e-07
4.67241e-07
4.62178e-07
4.58995e-07
4.56888e-07
4.55486e-07
4.54613e-07
4.54188e-07
4.54179e-07
4.54591e-07
4.55462e-07
4.56885e-07
4.59041e-07
4.62303e-07
4.67463e-07
4.76207e-07
4.923e-07
5.2495e-07
5.97456e-07
7.81409e-07
1.3877e-06
4.59868e-06
3.16846e-05
3.86638e-05
5.62012e-06
1.63291e-06
8.78402e-07
6.51166e-07
5.61995e-07
5.2262e-07
5.02158e-07
4.90036e-07
4.82368e-07
4.77164e-07
4.73486e-07
4.70933e-07
4.69306e-07
4.68502e-07
4.68478e-07
4.69238e-07
4.70835e-07
4.73385e-07
4.771e-07
4.82391e-07
4.90178e-07
5.0246e-07
5.23068e-07
5.62417e-07
6.51389e-07
8.77703e-07
1.62975e-06
5.61286e-06
3.8671e-05
4.92357e-05
7.26544e-06
2.05037e-06
1.04241e-06
7.50924e-07
6.4206e-07
5.92367e-07
5.6384e-07
5.44941e-07
5.32546e-07
5.23313e-07
5.16387e-07
5.1145e-07
5.0826e-07
5.06675e-07
5.06629e-07
5.08124e-07
5.11236e-07
5.16119e-07
5.23035e-07
5.32366e-07
5.44836e-07
5.63911e-07
5.92738e-07
6.42689e-07
7.51471e-07
1.04181e-06
2.04581e-06
7.25209e-06
4.92311e-05
6.66368e-05
1.02853e-05
2.84311e-06
1.39318e-06
9.96832e-07
8.54568e-07
7.81088e-07
7.32578e-07
6.9714e-07
6.70547e-07
6.50375e-07
6.35354e-07
6.24648e-07
6.17731e-07
6.14305e-07
6.14231e-07
6.17507e-07
6.24269e-07
6.34816e-07
6.49687e-07
6.69758e-07
6.96324e-07
7.31884e-07
7.80754e-07
8.54764e-07
9.97269e-07
1.39217e-06
2.83507e-06
1.02588e-05
6.66018e-05
0.000100064
1.53161e-05
5.13233e-06
2.56511e-06
1.91586e-06
1.62861e-06
1.44845e-06
1.319e-06
1.22124e-06
1.14684e-06
1.09072e-06
1.0491e-06
1.01948e-06
1.00037e-06
9.9097e-07
9.90857e-07
1.00002e-06
1.01885e-06
1.04815e-06
1.08935e-06
1.14499e-06
1.21894e-06
1.31635e-06
1.4457e-06
1.62618e-06
1.91361e-06
2.56071e-06
5.11383e-06
1.52665e-05
9.99579e-05
0.000150624
3.24815e-05
1.39016e-05
9.31442e-06
7.19854e-06
5.97392e-06
5.14093e-06
4.53211e-06
4.07604e-06
3.73479e-06
3.48141e-06
3.29502e-06
3.16296e-06
3.07849e-06
3.03729e-06
3.03719e-06
3.07815e-06
3.1623e-06
3.29384e-06
3.4794e-06
3.73181e-06
4.07184e-06
4.5264e-06
5.13334e-06
5.96415e-06
7.18552e-06
9.29485e-06
1.38667e-05
3.24085e-05
0.000150417
0.00152468
0.000224508
0.000110888
7.01889e-05
5.21443e-05
4.18653e-05
3.51579e-05
3.05121e-05
2.71713e-05
2.47257e-05
2.29258e-05
2.16037e-05
2.06706e-05
2.00779e-05
1.97905e-05
1.9791e-05
2.00796e-05
2.06734e-05
2.16074e-05
2.29292e-05
2.47296e-05
2.71757e-05
3.05164e-05
3.51606e-05
4.18631e-05
5.21293e-05
7.01412e-05
0.000110755
0.000224144
0.00152231
0.00112545
0.000169164
8.8926e-05
5.86275e-05
4.53624e-05
3.76329e-05
3.25151e-05
2.89294e-05
2.62846e-05
2.42982e-05
2.28217e-05
2.17662e-05
2.1048e-05
2.05923e-05
2.03696e-05
2.03675e-05
2.0586e-05
2.10372e-05
2.17507e-05
2.28052e-05
2.42766e-05
2.62554e-05
2.8882e-05
3.24605e-05
3.75849e-05
4.53417e-05
5.86771e-05
8.91505e-05
0.000169902
0.00113071
0.000107394
3.09972e-05
2.04088e-05
1.43569e-05
1.14969e-05
9.63807e-06
8.26948e-06
7.26404e-06
6.49557e-06
5.90753e-06
5.46645e-06
5.14758e-06
4.9291e-06
4.79236e-06
4.72628e-06
4.726e-06
4.79164e-06
4.92828e-06
5.14741e-06
5.46817e-06
5.91193e-06
6.50272e-06
7.27508e-06
8.28874e-06
9.67088e-06
1.15404e-05
1.44164e-05
2.04985e-05
3.12273e-05
0.000107926
8.40374e-05
2.23525e-05
1.13831e-05
5.82529e-06
3.73922e-06
2.88756e-06
2.4165e-06
2.09534e-06
1.8601e-06
1.68493e-06
1.55735e-06
1.46591e-06
1.40331e-06
1.36435e-06
1.34575e-06
1.34599e-06
1.36511e-06
1.40476e-06
1.46832e-06
1.5611e-06
1.69202e-06
1.86951e-06
2.10655e-06
2.42834e-06
2.89667e-06
3.74245e-06
5.82979e-06
1.14297e-05
2.25122e-05
8.42943e-05
5.75734e-05
1.62866e-05
6.54784e-06
2.81711e-06
1.56872e-06
1.15425e-06
9.81148e-07
8.81686e-07
8.11777e-07
7.59332e-07
7.20143e-07
6.91517e-07
6.71617e-07
6.59137e-07
6.53193e-07
6.5337e-07
6.59685e-07
6.72578e-07
6.92934e-07
7.2209e-07
7.61807e-07
8.14414e-07
8.83922e-07
9.81792e-07
1.15153e-06
1.56183e-06
2.8121e-06
6.57822e-06
1.63869e-05
5.76366e-05
4.44174e-05
1.15959e-05
4.1267e-06
1.69302e-06
9.55317e-07
7.02861e-07
6.0377e-07
5.55557e-07
5.2541e-07
5.02566e-07
4.85643e-07
4.73409e-07
4.65044e-07
4.59958e-07
4.57594e-07
4.5775e-07
4.60418e-07
4.65776e-07
4.74289e-07
4.8665e-07
5.03461e-07
5.26053e-07
5.55501e-07
6.02515e-07
6.99878e-07
9.50968e-07
1.69154e-06
4.1472e-06
1.16514e-05
4.44045e-05
3.63261e-05
8.76682e-06
2.84934e-06
1.20937e-06
7.23468e-07
5.47936e-07
4.71971e-07
4.37699e-07
4.20147e-07
4.09056e-07
4.01246e-07
3.95648e-07
3.91795e-07
3.89424e-07
3.88335e-07
3.88431e-07
3.89698e-07
3.92207e-07
3.96121e-07
4.01684e-07
4.09287e-07
4.19967e-07
4.36882e-07
4.70549e-07
5.46019e-07
7.21798e-07
1.21078e-06
2.86554e-06
8.79929e-06
3.62907e-05
3.07946e-05
6.99564e-06
2.14607e-06
9.5851e-07
6.10578e-07
4.75722e-07
4.17363e-07
3.90309e-07
3.76988e-07
3.69755e-07
3.65355e-07
3.62477e-07
3.60584e-07
3.59441e-07
3.58923e-07
3.58975e-07
3.59582e-07
3.6078e-07
3.62664e-07
3.65443e-07
3.69626e-07
3.76523e-07
3.89453e-07
4.16242e-07
4.74781e-07
6.10441e-07
9.60969e-07
2.15771e-06
7.00958e-06
3.07653e-05
2.68707e-05
5.85009e-06
1.73891e-06
8.14685e-07
5.45386e-07
4.38201e-07
3.91014e-07
3.68474e-07
3.57401e-07
3.51814e-07
3.48853e-07
3.47186e-07
3.46211e-07
3.45664e-07
3.45427e-07
3.45449e-07
3.45721e-07
3.46275e-07
3.47208e-07
3.48774e-07
3.51567e-07
3.56947e-07
3.6785e-07
3.90388e-07
4.37906e-07
5.45926e-07
8.16979e-07
1.74648e-06
5.85601e-06
2.68406e-05
2.41425e-05
5.08289e-06
1.48998e-06
7.26739e-07
5.04205e-07
4.16099e-07
3.7657e-07
3.57421e-07
3.47978e-07
3.43351e-07
3.41099e-07
3.4e-07
3.39458e-07
3.39197e-07
3.39094e-07
3.39099e-07
3.39207e-07
3.39452e-07
3.39949e-07
3.40969e-07
3.43117e-07
3.4765e-07
3.57068e-07
3.76342e-07
4.16224e-07
5.04918e-07
7.28472e-07
1.49459e-06
5.08466e-06
2.41194e-05
2.21197e-05
4.55012e-06
1.32875e-06
6.69305e-07
4.75308e-07
4.01377e-07
3.67723e-07
3.51315e-07
3.43213e-07
3.39291e-07
3.37462e-07
3.36649e-07
3.36307e-07
3.36173e-07
3.36129e-07
3.36126e-07
3.36161e-07
3.36273e-07
3.36578e-07
3.37342e-07
3.39122e-07
3.43024e-07
3.51174e-07
3.67745e-07
4.01706e-07
4.76085e-07
6.70479e-07
1.33128e-06
4.5497e-06
2.21029e-05
2.06116e-05
4.17242e-06
1.22007e-06
6.30514e-07
4.57221e-07
3.91542e-07
3.61972e-07
3.4767e-07
3.4066e-07
3.37298e-07
3.3576e-07
3.35106e-07
3.34854e-07
3.34771e-07
3.34747e-07
3.34741e-07
3.34751e-07
3.34816e-07
3.35044e-07
3.35674e-07
3.37199e-07
3.40579e-07
3.47661e-07
3.62108e-07
3.91899e-07
4.57833e-07
6.31222e-07
1.2212e-06
4.17082e-06
2.05992e-05
1.95051e-05
3.90551e-06
1.14571e-06
6.03684e-07
4.44872e-07
3.84842e-07
3.58116e-07
3.45369e-07
3.39202e-07
3.36278e-07
3.34954e-07
3.34396e-07
3.34185e-07
3.34117e-07
3.34098e-07
3.34092e-07
3.34099e-07
3.34154e-07
3.34352e-07
3.34902e-07
3.36233e-07
3.3919e-07
3.45426e-07
3.58283e-07
3.8515e-07
4.45304e-07
6.04078e-07
1.14599e-06
3.90331e-06
1.94955e-05
1.87272e-05
3.72277e-06
1.09572e-06
5.85269e-07
4.36406e-07
3.8028e-07
3.5553e-07
3.43885e-07
3.38331e-07
3.35729e-07
3.34557e-07
3.34062e-07
3.3387e-07
3.33804e-07
3.33784e-07
3.3378e-07
3.33791e-07
3.33848e-07
3.34035e-07
3.34533e-07
3.3572e-07
3.38357e-07
3.43969e-07
3.55692e-07
3.80528e-07
4.3671e-07
5.85507e-07
1.09558e-06
3.72035e-06
1.87194e-05
1.82316e-05
3.60833e-06
1.06475e-06
5.73644e-07
4.31043e-07
3.77399e-07
3.5391e-07
3.42975e-07
3.3782e-07
3.35429e-07
3.34357e-07
3.33901e-07
3.33718e-07
3.33651e-07
3.33629e-07
3.33626e-07
3.33642e-07
3.33705e-07
3.33887e-07
3.34351e-07
3.35441e-07
3.37865e-07
3.43067e-07
3.54059e-07
3.776e-07
4.31262e-07
5.7377e-07
1.0644e-06
3.60587e-06
1.82246e-05
1.79905e-05
3.55323e-06
1.04993e-06
5.68042e-07
4.28437e-07
3.75995e-07
3.53122e-07
3.42534e-07
3.37576e-07
3.35289e-07
3.34267e-07
3.33829e-07
3.33651e-07
3.33583e-07
3.33559e-07
3.33557e-07
3.33576e-07
3.33642e-07
3.33822e-07
3.34269e-07
3.35311e-07
3.37628e-07
3.42627e-07
3.53262e-07
3.76174e-07
4.28618e-07
5.68123e-07
1.04951e-06
3.5508e-06
1.79839e-05
1.79911e-05
3.55343e-06
1.04998e-06
5.68046e-07
4.28433e-07
3.75989e-07
3.53114e-07
3.42524e-07
3.37565e-07
3.35278e-07
3.34256e-07
3.33818e-07
3.3364e-07
3.33572e-07
3.33549e-07
3.33546e-07
3.33565e-07
3.33631e-07
3.33812e-07
3.34259e-07
3.353e-07
3.37617e-07
3.42617e-07
3.53253e-07
3.76167e-07
4.28617e-07
5.68136e-07
1.0496e-06
3.55106e-06
1.79843e-05
1.82333e-05
3.60895e-06
1.0649e-06
5.73658e-07
4.31036e-07
3.7738e-07
3.53884e-07
3.42944e-07
3.37787e-07
3.35395e-07
3.34324e-07
3.33867e-07
3.33686e-07
3.33619e-07
3.33597e-07
3.33594e-07
3.33611e-07
3.33673e-07
3.33856e-07
3.34319e-07
3.35409e-07
3.37832e-07
3.43034e-07
3.5403e-07
3.77579e-07
4.31259e-07
5.73808e-07
1.06465e-06
3.60664e-06
1.82259e-05
1.87302e-05
3.72387e-06
1.09602e-06
5.85309e-07
4.36403e-07
3.80253e-07
3.55487e-07
3.43833e-07
3.38275e-07
3.35671e-07
3.34501e-07
3.34007e-07
3.33817e-07
3.33752e-07
3.33733e-07
3.33729e-07
3.3374e-07
3.33797e-07
3.33983e-07
3.3448e-07
3.35666e-07
3.38302e-07
3.43913e-07
3.5564e-07
3.80488e-07
4.367e-07
5.85568e-07
1.09601e-06
3.72169e-06
1.87216e-05
1.95093e-05
3.90722e-06
1.14628e-06
6.03765e-07
4.44886e-07
3.84811e-07
3.58057e-07
3.45294e-07
3.39121e-07
3.36196e-07
3.34875e-07
3.34322e-07
3.34114e-07
3.34048e-07
3.3403e-07
3.34025e-07
3.34031e-07
3.34085e-07
3.34281e-07
3.34829e-07
3.36158e-07
3.39112e-07
3.45346e-07
3.58206e-07
3.85087e-07
4.45282e-07
6.04154e-07
1.14668e-06
3.90531e-06
1.9499e-05
2.0617e-05
4.17493e-06
1.22107e-06
6.30687e-07
4.57272e-07
3.91512e-07
3.61892e-07
3.47567e-07
3.40549e-07
3.37191e-07
3.35662e-07
3.35016e-07
3.34771e-07
3.34691e-07
3.34669e-07
3.34663e-07
3.34671e-07
3.34734e-07
3.34958e-07
3.35584e-07
3.37104e-07
3.40478e-07
3.47557e-07
3.62005e-07
3.91813e-07
4.57798e-07
6.31325e-07
1.22218e-06
4.17359e-06
2.06043e-05
2.21262e-05
4.55366e-06
1.33036e-06
6.6963e-07
4.7541e-07
4.0134e-07
3.67612e-07
3.51174e-07
3.43071e-07
3.39162e-07
3.3735e-07
3.36551e-07
3.36219e-07
3.36091e-07
3.36047e-07
3.36043e-07
3.36075e-07
3.36183e-07
3.36483e-07
3.37241e-07
3.39013e-07
3.42907e-07
3.51049e-07
3.67619e-07
4.01598e-07
4.76041e-07
6.70617e-07
1.33258e-06
4.55339e-06
2.211e-05
2.415e-05
5.0879e-06
1.49251e-06
7.27283e-07
5.04322e-07
4.16028e-07
3.76407e-07
3.57235e-07
3.47807e-07
3.43208e-07
3.40986e-07
3.39909e-07
3.3938e-07
3.39125e-07
3.39022e-07
3.39023e-07
3.39125e-07
3.39364e-07
3.39853e-07
3.40865e-07
3.43005e-07
3.47527e-07
3.56934e-07
3.76203e-07
4.16103e-07
5.04876e-07
7.28674e-07
1.49633e-06
5.08948e-06
2.41294e-05
2.68793e-05
5.8573e-06
1.74286e-06
8.15528e-07
5.4551e-07
4.38059e-07
3.9078e-07
3.68243e-07
3.57217e-07
3.51683e-07
3.48765e-07
3.47125e-07
3.46165e-07
3.45622e-07
3.45381e-07
3.45395e-07
3.45658e-07
3.46201e-07
3.47125e-07
3.48681e-07
3.51466e-07
3.56836e-07
3.67726e-07
3.90255e-07
4.37789e-07
5.45901e-07
8.17322e-07
1.74898e-06
5.86234e-06
2.68541e-05
3.07998e-05
7.00724e-06
2.15241e-06
9.5968e-07
6.10604e-07
4.75471e-07
4.17056e-07
3.90066e-07
3.76837e-07
3.69682e-07
3.65334e-07
3.62484e-07
3.60603e-07
3.59456e-07
3.58928e-07
3.58965e-07
3.59557e-07
3.60739e-07
3.6261e-07
3.65381e-07
3.69559e-07
3.76452e-07
3.89374e-07
4.1615e-07
4.74698e-07
6.10458e-07
9.61592e-07
2.16184e-06
7.01917e-06
3.07771e-05
3.63475e-05
8.79087e-06
2.85896e-06
1.21076e-06
7.23298e-07
5.47541e-07
4.71659e-07
4.37539e-07
4.20124e-07
4.09113e-07
4.01354e-07
3.95773e-07
3.91923e-07
3.89537e-07
3.88424e-07
3.88495e-07
3.8974e-07
3.92227e-07
3.9612e-07
4.01674e-07
4.09277e-07
4.19974e-07
4.36896e-07
4.7054e-07
5.46024e-07
7.21966e-07
1.21189e-06
2.87234e-06
8.81884e-06
3.63232e-05
4.44574e-05
1.16276e-05
4.13937e-06
1.69476e-06
9.54981e-07
7.02426e-07
6.03637e-07
5.55683e-07
5.25654e-07
5.02813e-07
4.85957e-07
4.73703e-07
4.65344e-07
4.60217e-07
4.57808e-07
4.57926e-07
4.60567e-07
4.65899e-07
4.74368e-07
4.86722e-07
5.03505e-07
5.26169e-07
5.55674e-07
6.02693e-07
7.00125e-07
9.51649e-07
1.69384e-06
4.15672e-06
1.16749e-05
4.44549e-05
5.76501e-05
1.63339e-05
6.56863e-06
2.82181e-06
1.56894e-06
1.15471e-06
9.82139e-07
8.82831e-07
8.12846e-07
7.60267e-07
7.20852e-07
6.92053e-07
6.72038e-07
6.59466e-07
6.53458e-07
6.53597e-07
6.59894e-07
6.72784e-07
6.93155e-07
7.22387e-07
7.62207e-07
8.14973e-07
8.84741e-07
9.82832e-07
1.15272e-06
1.56388e-06
2.81915e-06
6.5957e-06
1.64179e-05
5.77131e-05
8.41932e-05
2.24157e-05
1.14094e-05
5.83505e-06
3.74649e-06
2.89542e-06
2.42387e-06
2.10136e-06
1.86487e-06
1.68853e-06
1.55914e-06
1.46724e-06
1.40436e-06
1.36523e-06
1.34653e-06
1.34673e-06
1.36587e-06
1.40555e-06
1.46919e-06
1.56258e-06
1.69432e-06
1.87263e-06
2.11102e-06
2.43445e-06
2.90315e-06
3.75001e-06
5.84087e-06
1.14509e-05
2.25462e-05
8.44096e-05
0.000107638
3.1079e-05
2.04477e-05
1.43881e-05
1.15244e-05
9.66138e-06
8.28422e-06
7.27457e-06
6.50328e-06
5.9133e-06
5.47063e-06
5.1513e-06
4.93266e-06
4.79587e-06
4.72986e-06
4.72974e-06
4.79559e-06
4.93249e-06
5.15182e-06
5.47276e-06
5.91753e-06
6.51005e-06
7.2856e-06
8.30512e-06
9.68988e-06
1.15615e-05
1.4439e-05
2.05245e-05
3.12658e-05
0.000108079
0.00112768
0.000169488
8.90512e-05
5.86848e-05
4.5391e-05
3.7646e-05
3.25202e-05
2.89324e-05
2.62839e-05
2.42978e-05
2.28223e-05
2.1772e-05
2.10549e-05
2.05997e-05
2.03775e-05
2.0376e-05
2.05952e-05
2.10471e-05
2.17608e-05
2.28101e-05
2.42819e-05
2.62629e-05
2.88998e-05
3.24865e-05
3.76204e-05
4.53885e-05
5.874e-05
8.92484e-05
0.000170093
0.00113196
0.00094139
0.000139492
7.56379e-05
5.11813e-05
4.04024e-05
3.39695e-05
2.957e-05
2.64014e-05
2.40947e-05
2.24007e-05
2.1142e-05
2.02087e-05
1.95441e-05
1.91215e-05
1.89175e-05
1.89206e-05
1.91308e-05
1.95599e-05
2.02313e-05
2.11695e-05
2.2435e-05
2.41368e-05
2.64597e-05
2.96306e-05
3.40153e-05
4.04106e-05
5.11122e-05
7.53953e-05
0.000138702
0.000935313
9.17753e-05
3.31783e-05
2.19658e-05
1.6568e-05
1.40181e-05
1.25048e-05
1.13587e-05
1.03673e-05
9.4993e-06
8.76894e-06
8.1834e-06
7.73504e-06
7.41213e-06
7.20422e-06
7.10294e-06
7.10361e-06
7.20601e-06
7.41441e-06
7.73672e-06
8.18281e-06
8.76448e-06
9.49055e-06
1.03534e-05
1.13337e-05
1.24611e-05
1.39569e-05
1.64884e-05
2.18535e-05
3.27802e-05
9.11148e-05
7.24305e-05
2.20602e-05
1.3387e-05
8.49366e-06
6.05592e-06
4.7743e-06
4.00124e-06
3.46275e-06
3.06052e-06
2.74958e-06
2.51141e-06
2.33611e-06
2.21401e-06
2.13713e-06
2.09998e-06
2.09975e-06
2.13636e-06
2.21242e-06
2.33326e-06
2.50674e-06
2.7412e-06
3.04925e-06
3.44885e-06
3.98436e-06
4.7604e-06
6.04631e-06
8.47847e-06
1.33156e-05
2.18689e-05
7.20615e-05
5.01754e-05
1.76816e-05
9.22768e-06
4.93071e-06
2.84506e-06
1.90068e-06
1.47088e-06
1.24103e-06
1.09816e-06
9.94634e-07
9.17608e-07
8.61675e-07
8.22966e-07
7.98649e-07
7.86899e-07
7.86766e-07
7.9823e-07
8.22212e-07
8.60555e-07
9.16072e-07
9.92783e-07
1.09636e-06
1.2394e-06
1.47046e-06
1.9076e-06
2.85906e-06
4.93102e-06
9.17546e-06
1.75462e-05
5.0045e-05
3.89036e-05
1.36686e-05
6.52156e-06
3.0358e-06
1.53226e-06
9.55287e-07
7.24259e-07
6.19632e-07
5.61964e-07
5.23682e-07
4.96227e-07
4.76422e-07
4.62207e-07
4.52762e-07
4.48093e-07
4.47962e-07
4.52381e-07
4.61646e-07
4.75999e-07
4.95806e-07
5.23366e-07
5.62047e-07
6.20479e-07
7.26685e-07
9.62949e-07
1.54287e-06
3.03713e-06
6.48615e-06
1.35922e-05
3.88834e-05
3.203e-05
1.12194e-05
4.65504e-06
1.9586e-06
9.79179e-07
6.28079e-07
4.89565e-07
4.25531e-07
3.90631e-07
3.69434e-07
3.55231e-07
3.45325e-07
3.38476e-07
3.34084e-07
3.31912e-07
3.31848e-07
3.33906e-07
3.38245e-07
3.45147e-07
3.55182e-07
3.69675e-07
3.91406e-07
4.2708e-07
4.9168e-07
6.31358e-07
9.83615e-07
1.95647e-06
4.63032e-06
1.11796e-05
3.20545e-05
2.74398e-05
9.44087e-06
3.44379e-06
1.37394e-06
7.19916e-07
4.90475e-07
3.93235e-07
3.47934e-07
3.24634e-07
3.11144e-07
3.0259e-07
2.9686e-07
2.9302e-07
2.9062e-07
2.89445e-07
2.89408e-07
2.90525e-07
2.92919e-07
2.96835e-07
3.02745e-07
3.11622e-07
3.25594e-07
3.49436e-07
3.95007e-07
4.92057e-07
7.21068e-07
1.37259e-06
3.43022e-06
9.42263e-06
2.74696e-05
2.41945e-05
8.07404e-06
2.69019e-06
1.06311e-06
5.8587e-07
4.17805e-07
3.46142e-07
3.12978e-07
2.95821e-07
2.86105e-07
2.8019e-07
2.764e-07
2.7395e-07
2.72459e-07
2.71744e-07
2.71731e-07
2.72435e-07
2.73954e-07
2.76495e-07
2.80452e-07
2.8662e-07
2.96643e-07
3.14062e-07
3.47303e-07
4.18702e-07
5.86123e-07
1.06196e-06
2.68186e-06
8.06485e-06
2.42256e-05
2.17582e-05
7.00957e-06
2.20545e-06
8.80376e-07
5.09701e-07
3.75246e-07
3.20376e-07
2.94739e-07
2.81478e-07
2.74102e-07
2.69753e-07
2.67075e-07
2.65404e-07
2.64416e-07
2.63953e-07
2.63955e-07
2.64432e-07
2.6546e-07
2.6721e-07
2.70011e-07
2.74516e-07
2.82043e-07
2.95377e-07
3.20922e-07
3.75503e-07
5.09543e-07
8.79501e-07
2.2006e-06
7.00735e-06
2.17843e-05
1.99608e-05
6.20246e-06
1.88417e-06
7.66746e-07
4.60114e-07
3.49462e-07
3.05127e-07
2.84368e-07
2.73731e-07
2.67941e-07
2.64636e-07
2.62677e-07
2.61499e-07
2.60822e-07
2.60513e-07
2.60521e-07
2.60852e-07
2.61565e-07
2.62799e-07
2.64831e-07
2.68211e-07
2.74045e-07
2.84646e-07
3.0524e-07
3.4927e-07
4.59655e-07
7.66213e-07
1.88201e-06
6.2049e-06
1.99819e-05
1.86359e-05
5.60518e-06
1.66723e-06
6.93888e-07
4.27973e-07
3.33812e-07
2.95881e-07
2.78249e-07
2.69361e-07
2.6465e-07
2.62055e-07
2.60579e-07
2.59726e-07
2.59251e-07
2.59039e-07
2.59048e-07
2.59278e-07
2.59779e-07
2.60665e-07
2.62173e-07
2.64788e-07
2.69485e-07
2.78296e-07
2.9577e-07
3.33489e-07
4.27576e-07
6.93685e-07
1.66705e-06
5.61053e-06
1.86532e-05
1.76735e-05
5.17556e-06
1.52072e-06
6.46218e-07
4.07173e-07
3.23951e-07
2.902e-07
2.74594e-07
2.66853e-07
2.62857e-07
2.60735e-07
2.59578e-07
2.58937e-07
2.58591e-07
2.58441e-07
2.58447e-07
2.5861e-07
2.5897e-07
2.59624e-07
2.60787e-07
2.62899e-07
2.66856e-07
2.74517e-07
2.90003e-07
3.23636e-07
4.06897e-07
6.46248e-07
1.52179e-06
5.18251e-06
1.7688e-05
1.70017e-05
4.88067e-06
1.42519e-06
6.15738e-07
3.9388e-07
3.17746e-07
2.86722e-07
2.72427e-07
2.65421e-07
2.61881e-07
2.60059e-07
2.59103e-07
2.58594e-07
2.58329e-07
2.58215e-07
2.58219e-07
2.58339e-07
2.58609e-07
2.59118e-07
2.60065e-07
2.61863e-07
2.65358e-07
2.72295e-07
2.86508e-07
3.17475e-07
3.93699e-07
6.15833e-07
1.42644e-06
4.88821e-06
1.70144e-05
1.65752e-05
4.69661e-06
1.36737e-06
5.97579e-07
3.85943e-07
3.1407e-07
2.8471e-07
2.7121e-07
2.64645e-07
2.61375e-07
2.59727e-07
2.58886e-07
2.58452e-07
2.58232e-07
2.58139e-07
2.58141e-07
2.58235e-07
2.58454e-07
2.58881e-07
2.59705e-07
2.61324e-07
2.6455e-07
2.71059e-07
2.84502e-07
3.13842e-07
3.85826e-07
5.97745e-07
1.36874e-06
4.7043e-06
1.65869e-05
1.63675e-05
4.608e-06
1.33997e-06
5.8902e-07
3.82213e-07
3.12352e-07
2.83786e-07
2.70666e-07
2.64308e-07
2.61163e-07
2.59595e-07
2.58806e-07
2.58405e-07
2.58205e-07
2.5812e-07
2.58121e-07
2.58205e-07
2.58401e-07
2.58792e-07
2.59562e-07
2.611e-07
2.64204e-07
2.70512e-07
2.83588e-07
3.12147e-07
3.82124e-07
5.89206e-07
1.34135e-06
4.61561e-06
1.63787e-05
1.6366e-05
4.60724e-06
1.33984e-06
5.88996e-07
3.82208e-07
3.12355e-07
2.83795e-07
2.70678e-07
2.64321e-07
2.61176e-07
2.59606e-07
2.58815e-07
2.58413e-07
2.58211e-07
2.58127e-07
2.58127e-07
2.58212e-07
2.58411e-07
2.58804e-07
2.59576e-07
2.61117e-07
2.64222e-07
2.7053e-07
2.83602e-07
3.12154e-07
3.82115e-07
5.89167e-07
1.34115e-06
4.61464e-06
1.63773e-05
1.65708e-05
4.69426e-06
1.36696e-06
5.97505e-07
3.85927e-07
3.14079e-07
2.84736e-07
2.71246e-07
2.64684e-07
2.61412e-07
2.5976e-07
2.58915e-07
2.58476e-07
2.58252e-07
2.58157e-07
2.5816e-07
2.58258e-07
2.58482e-07
2.58915e-07
2.59747e-07
2.61373e-07
2.64604e-07
2.71112e-07
2.84547e-07
3.13864e-07
3.85803e-07
5.97631e-07
1.36815e-06
4.70135e-06
1.65826e-05
1.69941e-05
4.87658e-06
1.42445e-06
6.15603e-07
3.93849e-07
3.17761e-07
2.86768e-07
2.72489e-07
2.65488e-07
2.61945e-07
2.60114e-07
2.59149e-07
2.58631e-07
2.58359e-07
2.58243e-07
2.58248e-07
2.58373e-07
2.58652e-07
2.59173e-07
2.60133e-07
2.61944e-07
2.65447e-07
2.72386e-07
2.86587e-07
3.1752e-07
3.9367e-07
6.15644e-07
1.42541e-06
4.88313e-06
1.70069e-05
1.76627e-05
5.16939e-06
1.51916e-06
6.46012e-07
4.07125e-07
3.23973e-07
2.90268e-07
2.74686e-07
2.66949e-07
2.62946e-07
2.6081e-07
2.59637e-07
2.58983e-07
2.58628e-07
2.58474e-07
2.58482e-07
2.58653e-07
2.59025e-07
2.59695e-07
2.60877e-07
2.63008e-07
2.66979e-07
2.74647e-07
2.90121e-07
3.23712e-07
4.06874e-07
6.45975e-07
1.51971e-06
5.17488e-06
1.76768e-05
1.86217e-05
5.59661e-06
1.66457e-06
6.93568e-07
4.27898e-07
3.33842e-07
2.95976e-07
2.78375e-07
2.69488e-07
2.64762e-07
2.62145e-07
2.60646e-07
2.59774e-07
2.59287e-07
2.59071e-07
2.59082e-07
2.59323e-07
2.59839e-07
2.60745e-07
2.62277e-07
2.64917e-07
2.69635e-07
2.78458e-07
2.95925e-07
3.33602e-07
4.27565e-07
6.93325e-07
1.66391e-06
5.60018e-06
1.86376e-05
1.9943e-05
6.19111e-06
1.8804e-06
7.66278e-07
4.60003e-07
3.49507e-07
3.05258e-07
2.84532e-07
2.73888e-07
2.6807e-07
2.6473e-07
2.6274e-07
2.61538e-07
2.60846e-07
2.60532e-07
2.60544e-07
2.60887e-07
2.61618e-07
2.62876e-07
2.64935e-07
2.68344e-07
2.74204e-07
2.84823e-07
3.05414e-07
3.49404e-07
4.59649e-07
7.65765e-07
1.878e-06
6.19167e-06
1.99613e-05
2.17364e-05
6.99481e-06
2.2003e-06
8.79701e-07
5.09594e-07
3.75328e-07
3.2056e-07
2.94944e-07
2.81654e-07
2.7423e-07
2.69831e-07
2.67113e-07
2.65414e-07
2.6441e-07
2.63944e-07
2.63952e-07
2.64443e-07
2.65492e-07