/*--------------------------------*- C++ -*----------------------------------*\
| =========                 |                                                 |
| \\      /  F ield         | OpenFOAM: The Open Source CFD Toolbox           |
|  \\    /   O peration     | Version:  2312                                  |
|   \\  /    A nd           | Website:  www.openfoam.com                      |
|    \\/     M anipulation  |                                                 |
\*---------------------------------------------------------------------------*/
FoamFile
{
    version     2.0;
    format      ascii;
    arch        "LSB;label=32;scalar=64";
    class       volScalarField;
    location    "1000";
    object      k;
}
// * * * * * * * * * * * * * * * * * * * * * * * * * * * * * * * * * * * * * //

dimensions      [0 2 -2 0 0 0 0];

internalField   nonuniform List<scalar> 
27000
(
0.000258814
0.000129402
0.000107483
9.57717e-05
9.0317e-05
8.69229e-05
8.43351e-05
8.20676e-05
8.01788e-05
7.86465e-05
7.74165e-05
7.64278e-05
7.56704e-05
7.51678e-05
7.49191e-05
7.49215e-05
7.5175e-05
7.56823e-05
7.64437e-05
7.74311e-05
7.86631e-05
8.0197e-05
8.20857e-05
8.435e-05
8.69292e-05
9.03049e-05
9.57256e-05
0.000107382
0.000129233
0.000258487
9.81374e-05
2.14937e-05
2.82603e-05
3.06854e-05
3.24728e-05
3.36516e-05
3.44008e-05
3.48462e-05
3.50875e-05
3.52292e-05
3.53236e-05
3.53888e-05
3.54312e-05
3.54563e-05
3.54675e-05
3.54661e-05
3.5452e-05
3.54236e-05
3.53774e-05
3.5308e-05
3.52093e-05
3.50629e-05
3.48168e-05
3.43676e-05
3.36164e-05
3.24345e-05
3.06425e-05
2.82072e-05
2.14475e-05
9.80317e-05
0.000101322
3.4879e-05
2.8884e-05
2.7363e-05
2.80474e-05
2.89418e-05
2.97025e-05
3.03329e-05
3.08213e-05
3.11957e-05
3.14846e-05
3.17042e-05
3.18625e-05
3.19645e-05
3.20133e-05
3.20106e-05
3.19564e-05
3.18491e-05
3.16861e-05
3.14632e-05
3.11731e-05
3.07994e-05
3.03143e-05
2.96908e-05
2.89411e-05
2.8054e-05
2.73677e-05
2.88493e-05
3.47766e-05
0.000101237
9.4918e-05
3.52528e-05
2.88019e-05
2.86109e-05
2.94618e-05
3.02594e-05
3.08873e-05
3.1378e-05
3.17591e-05
3.20507e-05
3.22734e-05
3.24414e-05
3.25623e-05
3.26403e-05
3.26774e-05
3.2675e-05
3.26331e-05
3.25511e-05
3.24275e-05
3.2259e-05
3.20386e-05
3.17527e-05
3.13803e-05
3.09014e-05
3.0286e-05
2.94961e-05
2.86399e-05
2.87954e-05
3.51841e-05
9.48817e-05
9.04035e-05
3.42354e-05
2.90732e-05
2.97676e-05
3.07688e-05
3.15174e-05
3.2051e-05
3.24361e-05
3.27179e-05
3.29241e-05
3.30757e-05
3.31865e-05
3.32647e-05
3.33146e-05
3.33381e-05
3.33364e-05
3.33097e-05
3.32577e-05
3.3179e-05
3.307e-05
3.2923e-05
3.27244e-05
3.24525e-05
3.20781e-05
3.15528e-05
3.08051e-05
2.97924e-05
2.90689e-05
3.41901e-05
9.04002e-05
8.67208e-05
3.39502e-05
2.94898e-05
3.05465e-05
3.16116e-05
3.23401e-05
3.28231e-05
3.31445e-05
3.33595e-05
3.35039e-05
3.36012e-05
3.36669e-05
3.37106e-05
3.37372e-05
3.37495e-05
3.37486e-05
3.37349e-05
3.37077e-05
3.36652e-05
3.36026e-05
3.35106e-05
3.33735e-05
3.31664e-05
3.28519e-05
3.23717e-05
3.16388e-05
3.05597e-05
2.9481e-05
3.39181e-05
8.6736e-05
8.35659e-05
3.39923e-05
3.01305e-05
3.11793e-05
3.21892e-05
3.28712e-05
3.33101e-05
3.35845e-05
3.37517e-05
3.38507e-05
3.39078e-05
3.39399e-05
3.39576e-05
3.39668e-05
3.39706e-05
3.39703e-05
3.39664e-05
3.39579e-05
3.39421e-05
3.39134e-05
3.38612e-05
3.37677e-05
3.36055e-05
3.33337e-05
3.28932e-05
3.22033e-05
3.11791e-05
3.01112e-05
3.39655e-05
8.35915e-05
8.08256e-05
3.41377e-05
3.07777e-05
3.17235e-05
3.26245e-05
3.32313e-05
3.36154e-05
3.38451e-05
3.3973e-05
3.40376e-05
3.40654e-05
3.40739e-05
3.40738e-05
3.40712e-05
3.40693e-05
3.40695e-05
3.40721e-05
3.4076e-05
3.40783e-05
3.40728e-05
3.40485e-05
3.39872e-05
3.38614e-05
3.36313e-05
3.32428e-05
3.26271e-05
3.17137e-05
3.07556e-05
3.41179e-05
8.08635e-05
7.8314e-05
3.42823e-05
3.13167e-05
3.21643e-05
3.29578e-05
3.34839e-05
3.38084e-05
3.39931e-05
3.40864e-05
3.41242e-05
3.41315e-05
3.41247e-05
3.41137e-05
3.41041e-05
3.4099e-05
3.40995e-05
3.41057e-05
3.41167e-05
3.41295e-05
3.41385e-05
3.41334e-05
3.4097e-05
3.40036e-05
3.38165e-05
3.34867e-05
3.29526e-05
3.215e-05
3.12957e-05
3.42685e-05
7.83527e-05
7.61789e-05
3.44052e-05
3.17466e-05
3.251e-05
3.32092e-05
3.36627e-05
3.3931e-05
3.40738e-05
3.41372e-05
3.41542e-05
3.41477e-05
3.4132e-05
3.41155e-05
3.41029e-05
3.40964e-05
3.40969e-05
3.41045e-05
3.41184e-05
3.41363e-05
3.41534e-05
3.41608e-05
3.41437e-05
3.4079e-05
3.39329e-05
3.36596e-05
3.31998e-05
3.24946e-05
3.17282e-05
3.43959e-05
7.62159e-05
7.44225e-05
3.45044e-05
3.20821e-05
3.27789e-05
3.34008e-05
3.37908e-05
3.40097e-05
3.41164e-05
3.41551e-05
3.41567e-05
3.41414e-05
3.41212e-05
3.41029e-05
3.40897e-05
3.40831e-05
3.40835e-05
3.40911e-05
3.41053e-05
3.41245e-05
3.41452e-05
3.41604e-05
3.4158e-05
3.41173e-05
3.40074e-05
3.37842e-05
3.33897e-05
3.27641e-05
3.20665e-05
3.44983e-05
7.44577e-05
7.30332e-05
3.45801e-05
3.2335e-05
3.29818e-05
3.35434e-05
3.38822e-05
3.40609e-05
3.41384e-05
3.41579e-05
3.41486e-05
3.41281e-05
3.41063e-05
3.40882e-05
3.40757e-05
3.40696e-05
3.40699e-05
3.40768e-05
3.40898e-05
3.41083e-05
3.413e-05
3.41499e-05
3.41579e-05
3.41362e-05
3.40559e-05
3.38739e-05
3.3532e-05
3.29682e-05
3.23218e-05
3.45763e-05
7.30671e-05
7.20005e-05
3.46341e-05
3.25154e-05
3.31266e-05
3.36444e-05
3.39452e-05
3.40938e-05
3.41497e-05
3.41555e-05
3.41389e-05
3.41155e-05
3.40936e-05
3.40765e-05
3.40652e-05
3.40598e-05
3.40601e-05
3.40659e-05
3.40774e-05
3.40945e-05
3.41159e-05
3.41383e-05
3.41534e-05
3.41456e-05
3.40873e-05
3.39362e-05
3.36333e-05
3.31144e-05
3.25041e-05
3.46319e-05
7.20338e-05
7.13161e-05
3.46683e-05
3.26311e-05
3.32196e-05
3.37089e-05
3.39848e-05
3.41136e-05
3.41554e-05
3.41525e-05
3.41314e-05
3.41067e-05
3.40852e-05
3.40692e-05
3.4059e-05
3.40542e-05
3.40543e-05
3.40594e-05
3.40696e-05
3.40853e-05
3.41061e-05
3.41297e-05
3.41491e-05
3.41502e-05
3.41064e-05
3.39756e-05
3.36983e-05
3.32084e-05
3.26211e-05
3.46671e-05
7.13492e-05
7.09739e-05
3.46844e-05
3.26873e-05
3.3265e-05
3.37403e-05
3.40039e-05
3.4123e-05
3.41579e-05
3.41508e-05
3.41278e-05
3.41025e-05
3.40814e-05
3.4066e-05
3.40565e-05
3.4052e-05
3.4052e-05
3.40566e-05
3.40661e-05
3.4081e-05
3.41014e-05
3.41255e-05
3.4147e-05
3.41523e-05
3.41156e-05
3.39948e-05
3.373e-05
3.32544e-05
3.26781e-05
3.46837e-05
7.10072e-05
7.09708e-05
3.46833e-05
3.26869e-05
3.32648e-05
3.37402e-05
3.40041e-05
3.41233e-05
3.41583e-05
3.41513e-05
3.41283e-05
3.41031e-05
3.40819e-05
3.40665e-05
3.4057e-05
3.40524e-05
3.40525e-05
3.40571e-05
3.40666e-05
3.40815e-05
3.41019e-05
3.4126e-05
3.41475e-05
3.41527e-05
3.4116e-05
3.39951e-05
3.37302e-05
3.32544e-05
3.26778e-05
3.46827e-05
7.10045e-05
7.13069e-05
3.46648e-05
3.26297e-05
3.3219e-05
3.37088e-05
3.39852e-05
3.41144e-05
3.41565e-05
3.41538e-05
3.41329e-05
3.41082e-05
3.40867e-05
3.40707e-05
3.40604e-05
3.40556e-05
3.40557e-05
3.40607e-05
3.4071e-05
3.40867e-05
3.41076e-05
3.41312e-05
3.41506e-05
3.41516e-05
3.41076e-05
3.39765e-05
3.36988e-05
3.32084e-05
3.26202e-05
3.46639e-05
7.13411e-05
7.19854e-05
3.46281e-05
3.2513e-05
3.31255e-05
3.36442e-05
3.39459e-05
3.40952e-05
3.41516e-05
3.41577e-05
3.41413e-05
3.41179e-05
3.40959e-05
3.40787e-05
3.40674e-05
3.40619e-05
3.40621e-05
3.4068e-05
3.40796e-05
3.40967e-05
3.41183e-05
3.41407e-05
3.41558e-05
3.41478e-05
3.40892e-05
3.39377e-05
3.36341e-05
3.31143e-05
3.25026e-05
3.46265e-05
7.20202e-05
7.30126e-05
3.45715e-05
3.23314e-05
3.29801e-05
3.35431e-05
3.38831e-05
3.40628e-05
3.4141e-05
3.4161e-05
3.41518e-05
3.41312e-05
3.41092e-05
3.40909e-05
3.40782e-05
3.4072e-05
3.40724e-05
3.40792e-05
3.40924e-05
3.41111e-05
3.4133e-05
3.4153e-05
3.4161e-05
3.41391e-05
3.40585e-05
3.38759e-05
3.35331e-05
3.29681e-05
3.23198e-05
3.45688e-05
7.30479e-05
7.43971e-05
3.44929e-05
3.20771e-05
3.27765e-05
3.34003e-05
3.37919e-05
3.40121e-05
3.41197e-05
3.41588e-05
3.41604e-05
3.41449e-05
3.41245e-05
3.41058e-05
3.40923e-05
3.40855e-05
3.4086e-05
3.40937e-05
3.4108e-05
3.41274e-05
3.41484e-05
3.41638e-05
3.41614e-05
3.41206e-05
3.40104e-05
3.37866e-05
3.33911e-05
3.2764e-05
3.20637e-05
3.44884e-05
7.44329e-05
7.61492e-05
3.43903e-05
3.17396e-05
3.25066e-05
3.32085e-05
3.36642e-05
3.3934e-05
3.40777e-05
3.41413e-05
3.41582e-05
3.41513e-05
3.4135e-05
3.4118e-05
3.4105e-05
3.40984e-05
3.40989e-05
3.41067e-05
3.41208e-05
3.4139e-05
3.41564e-05
3.4164e-05
3.41471e-05
3.40824e-05
3.3936e-05
3.36621e-05
3.32012e-05
3.24941e-05
3.17245e-05
3.43833e-05
7.61853e-05
7.82804e-05
3.42636e-05
3.13075e-05
3.216e-05
3.29572e-05
3.34859e-05
3.38121e-05
3.39974e-05
3.40907e-05
3.4128e-05
3.41345e-05
3.41269e-05
3.41153e-05
3.41054e-05
3.41001e-05
3.41006e-05
3.41071e-05
3.41184e-05
3.41316e-05
3.4141e-05
3.41361e-05
3.40999e-05
3.40066e-05
3.38192e-05
3.34888e-05
3.29535e-05
3.21489e-05
3.12907e-05
3.4253e-05
7.83162e-05
8.07887e-05
3.41145e-05
3.0766e-05
3.17187e-05
3.26245e-05
3.32342e-05
3.36198e-05
3.38496e-05
3.3977e-05
3.40406e-05
3.40673e-05
3.40748e-05
3.4074e-05
3.4071e-05
3.4069e-05
3.40694e-05
3.40723e-05
3.40766e-05
3.40793e-05
3.40742e-05
3.40503e-05
3.39892e-05
3.38635e-05
3.36331e-05
3.3244e-05
3.26272e-05
3.17114e-05
3.07487e-05
3.40992e-05
8.08217e-05
8.353e-05
3.39643e-05
3.01172e-05
3.11753e-05
3.21903e-05
3.2875e-05
3.33147e-05
3.35886e-05
3.37545e-05
3.3852e-05
3.39076e-05
3.39387e-05
3.39557e-05
3.39646e-05
3.39684e-05
3.39685e-05
3.39649e-05
3.39569e-05
3.39417e-05
3.39135e-05
3.38616e-05
3.37684e-05
3.36062e-05
3.33342e-05
3.28931e-05
3.2202e-05
3.11754e-05
3.01021e-05
3.39433e-05
8.35509e-05
8.66802e-05
3.39177e-05
2.94776e-05
3.05437e-05
3.16138e-05
3.23441e-05
3.2827e-05
3.31469e-05
3.33599e-05
3.35023e-05
3.35981e-05
3.36628e-05
3.37059e-05
3.37325e-05
3.37451e-05
3.37446e-05
3.37315e-05
3.37049e-05
3.3663e-05
3.36009e-05
3.35093e-05
3.33724e-05
3.31653e-05
3.28505e-05
3.23696e-05
3.16355e-05
3.05541e-05
2.94705e-05
3.38924e-05
8.66912e-05
9.03557e-05
3.41937e-05
2.90577e-05
2.97645e-05
3.07706e-05
3.152e-05
3.20521e-05
3.24348e-05
3.27141e-05
3.29182e-05
3.30685e-05
3.31786e-05
3.32567e-05
3.33069e-05
3.3331e-05
3.33299e-05
3.33039e-05
3.32526e-05
3.31746e-05
3.30661e-05
3.29195e-05
3.27211e-05
3.24492e-05
3.20745e-05
3.15485e-05
3.07994e-05
2.97836e-05
2.90535e-05
3.41576e-05
9.03504e-05
9.48591e-05
3.5199e-05
2.87792e-05
2.86047e-05
2.94601e-05
3.02572e-05
3.08822e-05
3.137e-05
3.1749e-05
3.2039e-05
3.2261e-05
3.24288e-05
3.25502e-05
3.26289e-05
3.26669e-05
3.26653e-05
3.26241e-05
3.25428e-05
3.24199e-05
3.2252e-05
3.2032e-05
3.17463e-05
3.13739e-05
3.08948e-05
3.02791e-05
2.94875e-05
2.86273e-05
2.87731e-05
3.51441e-05
9.48263e-05
0.00010125
3.48184e-05
2.88442e-05
2.73449e-05
2.8034e-05
2.89279e-05
2.96846e-05
3.03136e-05
3.08017e-05
3.11761e-05
3.14653e-05
3.16857e-05
3.18452e-05
3.19483e-05
3.19981e-05
3.19962e-05
3.19426e-05
3.18358e-05
3.16733e-05
3.14508e-05
3.11608e-05
3.07869e-05
3.03011e-05
2.96772e-05
2.89287e-05
2.804e-05
2.73489e-05
2.88162e-05
3.47379e-05
0.000101179
9.80633e-05
2.14658e-05
2.82178e-05
3.06447e-05
3.2433e-05
3.36128e-05
3.43623e-05
3.48096e-05
3.50533e-05
3.51972e-05
3.52935e-05
3.53599e-05
3.54032e-05
3.5429e-05
3.54407e-05
3.54395e-05
3.54255e-05
3.53971e-05
3.53508e-05
3.52812e-05
3.51815e-05
3.50339e-05
3.47866e-05
3.43367e-05
3.35848e-05
3.24018e-05
3.06095e-05
2.81743e-05
2.14269e-05
9.79741e-05
0.000258617
0.000129293
0.000107402
9.57115e-05
9.02682e-05
8.68803e-05
8.42957e-05
8.20298e-05
8.01414e-05
7.86087e-05
7.73773e-05
7.63824e-05
7.5623e-05
7.51195e-05
7.48699e-05
7.48714e-05
7.51238e-05
7.56302e-05
7.63918e-05
7.73855e-05
7.86177e-05
8.01509e-05
8.20384e-05
8.4301e-05
8.68784e-05
9.02519e-05
9.56693e-05
0.000107317
0.000129154
0.000258351
0.000211241
0.000107065
9.27096e-05
8.48916e-05
8.22625e-05
8.09223e-05
8.00169e-05
7.91682e-05
7.83884e-05
7.77002e-05
7.71431e-05
7.6766e-05
7.65418e-05
7.6398e-05
7.63241e-05
7.63188e-05
7.63821e-05
7.65149e-05
7.67288e-05
7.71054e-05
7.76535e-05
7.83295e-05
7.90805e-05
7.9926e-05
8.0852e-05
8.22361e-05
8.49384e-05
9.28648e-05
0.000107377
0.000211899
7.82664e-05
2.36912e-05
4.12351e-05
4.20654e-05
4.33019e-05
4.35207e-05
4.31561e-05
4.27901e-05
4.22976e-05
4.17821e-05
4.13215e-05
4.09549e-05
4.06899e-05
4.05194e-05
4.0436e-05
4.04357e-05
4.05187e-05
4.06895e-05
4.09565e-05
4.13276e-05
4.17927e-05
4.2313e-05
4.28154e-05
4.32071e-05
4.36283e-05
4.34305e-05
4.22039e-05
4.13724e-05
2.38453e-05
7.8524e-05
9.01296e-05
5.05675e-05
4.08875e-05
3.28358e-05
3.01014e-05
2.95731e-05
2.9452e-05
2.92536e-05
2.90486e-05
2.88523e-05
2.8673e-05
2.85304e-05
2.84311e-05
2.83718e-05
2.83472e-05
2.83538e-05
2.83923e-05
2.84663e-05
2.85808e-05
2.87356e-05
2.89166e-05
2.91144e-05
2.93172e-05
2.95027e-05
2.9591e-05
3.00873e-05
3.28201e-05
4.09714e-05
5.08943e-05
9.03129e-05
8.6051e-05
4.94315e-05
3.60203e-05
2.82325e-05
2.48796e-05
2.43242e-05
2.46396e-05
2.50587e-05
2.54068e-05
2.57035e-05
2.59342e-05
2.61015e-05
2.62176e-05
2.62929e-05
2.63335e-05
2.63422e-05
2.63189e-05
2.62603e-05
2.61584e-05
2.59992e-05
2.57659e-05
2.54528e-05
2.50825e-05
2.46236e-05
2.42573e-05
2.4775e-05
2.81613e-05
3.60895e-05
4.96752e-05
8.61137e-05
8.43609e-05
4.53645e-05
3.22464e-05
2.58429e-05
2.38742e-05
2.38431e-05
2.44332e-05
2.50793e-05
2.56171e-05
2.6044e-05
2.63714e-05
2.66112e-05
2.6777e-05
2.68817e-05
2.69351e-05
2.69419e-05
2.69014e-05
2.68078e-05
2.66493e-05
2.64104e-05
2.60748e-05
2.56281e-05
2.50591e-05
2.43704e-05
2.37417e-05
2.37707e-05
2.57843e-05
3.22807e-05
4.55329e-05
8.4344e-05
8.31505e-05
4.20709e-05
3.00188e-05
2.50286e-05
2.41313e-05
2.45334e-05
2.52063e-05
2.5855e-05
2.63991e-05
2.6829e-05
2.7156e-05
2.73956e-05
2.75617e-05
2.76664e-05
2.77187e-05
2.7723e-05
2.76787e-05
2.75798e-05
2.74156e-05
2.71721e-05
2.68335e-05
2.63842e-05
2.58141e-05
2.51386e-05
2.445e-05
2.40588e-05
2.50097e-05
3.00629e-05
4.21875e-05
8.30959e-05
8.19791e-05
3.99731e-05
2.84047e-05
2.48411e-05
2.47228e-05
2.53384e-05
2.60261e-05
2.6634e-05
2.71326e-05
2.75232e-05
2.78184e-05
2.80334e-05
2.81818e-05
2.82749e-05
2.83207e-05
2.8323e-05
2.82812e-05
2.81901e-05
2.80404e-05
2.78196e-05
2.75137e-05
2.71082e-05
2.65935e-05
2.59741e-05
2.5288e-05
2.4696e-05
2.48616e-05
2.84665e-05
4.0009e-05
8.19268e-05
8.0929e-05
3.87077e-05
2.74431e-05
2.49334e-05
2.52837e-05
2.60257e-05
2.67079e-05
2.72705e-05
2.77149e-05
2.8055e-05
2.83075e-05
2.84886e-05
2.86121e-05
2.86887e-05
2.87257e-05
2.87266e-05
2.86908e-05
2.86139e-05
2.84877e-05
2.83011e-05
2.80405e-05
2.76913e-05
2.72398e-05
2.66768e-05
2.60059e-05
2.52911e-05
2.49768e-05
2.7498e-05
3.87228e-05
8.08679e-05
8.02991e-05
3.78567e-05
2.69629e-05
2.52155e-05
2.57876e-05
2.65759e-05
2.72401e-05
2.77576e-05
2.81487e-05
2.84373e-05
2.8645e-05
2.879e-05
2.88867e-05
2.89456e-05
2.89734e-05
2.89733e-05
2.89451e-05
2.88849e-05
2.87853e-05
2.86361e-05
2.84234e-05
2.81308e-05
2.7739e-05
2.7227e-05
2.65772e-05
2.58118e-05
2.52629e-05
2.70063e-05
3.7862e-05
8.02477e-05
7.97529e-05
3.72647e-05
2.67273e-05
2.55087e-05
2.62045e-05
2.70035e-05
2.76415e-05
2.81161e-05
2.84583e-05
2.86993e-05
2.88653e-05
2.89764e-05
2.90479e-05
2.90901e-05
2.91094e-05
2.9109e-05
2.90884e-05
2.90446e-05
2.89708e-05
2.8857e-05
2.86888e-05
2.84472e-05
2.81077e-05
2.76406e-05
2.70154e-05
2.62328e-05
2.555e-05
2.67588e-05
3.72648e-05
7.97122e-05
7.92755e-05
3.68498e-05
2.66198e-05
2.57565e-05
2.65241e-05
2.73232e-05
2.79347e-05
2.83711e-05
2.86711e-05
2.88714e-05
2.90015e-05
2.90837e-05
2.91336e-05
2.91617e-05
2.9174e-05
2.91734e-05
2.91597e-05
2.91302e-05
2.90787e-05
2.89953e-05
2.88648e-05
2.86659e-05
2.83699e-05
2.79406e-05
2.7339e-05
2.65504e-05
2.57888e-05
2.66414e-05
3.68473e-05
7.92435e-05
7.88774e-05
3.65629e-05
2.65812e-05
2.59547e-05
2.67619e-05
2.75543e-05
2.81416e-05
2.85461e-05
2.8812e-05
2.89796e-05
2.90813e-05
2.91405e-05
2.91736e-05
2.91907e-05
2.91976e-05
2.91971e-05
2.9189e-05
2.91708e-05
2.91369e-05
2.90774e-05
2.89765e-05
2.88111e-05
2.85493e-05
2.81508e-05
2.75703e-05
2.6784e-05
2.59785e-05
2.65953e-05
3.6559e-05
7.88515e-05
7.85692e-05
3.63713e-05
2.65772e-05
2.61053e-05
2.69318e-05
2.77143e-05
2.82812e-05
2.86608e-05
2.89009e-05
2.90443e-05
2.91252e-05
2.91679e-05
2.91888e-05
2.91981e-05
2.92014e-05
2.92009e-05
2.91969e-05
2.91869e-05
2.91656e-05
2.91233e-05
2.90438e-05
2.89028e-05
2.86664e-05
2.82914e-05
2.7729e-05
2.69496e-05
2.61222e-05
2.65858e-05
3.63669e-05
7.85473e-05
7.83594e-05
3.62539e-05
2.65852e-05
2.62073e-05
2.70421e-05
2.78152e-05
2.83672e-05
2.87296e-05
2.89523e-05
2.90799e-05
2.91472e-05
2.91793e-05
2.91926e-05
2.91971e-05
2.9198e-05
2.91977e-05
2.91962e-05
2.91914e-05
2.91782e-05
2.91468e-05
2.9081e-05
2.89558e-05
2.87363e-05
2.83774e-05
2.78286e-05
2.70567e-05
2.62198e-05
2.65907e-05
3.62494e-05
7.83397e-05
7.82539e-05
3.61981e-05
2.65922e-05
2.62588e-05
2.70965e-05
2.78641e-05
2.8408e-05
2.87616e-05
2.89755e-05
2.90952e-05
2.9156e-05
2.91829e-05
2.91925e-05
2.91946e-05
2.91944e-05
2.91942e-05
2.9194e-05
2.91917e-05
2.91824e-05
2.91563e-05
2.90972e-05
2.89798e-05
2.87687e-05
2.84181e-05
2.78766e-05
2.71096e-05
2.62693e-05
2.65965e-05
3.61937e-05
7.82349e-05
7.82556e-05
3.61981e-05
2.65924e-05
2.62591e-05
2.70966e-05
2.78641e-05
2.84077e-05
2.87611e-05
2.8975e-05
2.90946e-05
2.91552e-05
2.91821e-05
2.91917e-05
2.91938e-05
2.91936e-05
2.91934e-05
2.91932e-05
2.9191e-05
2.91817e-05
2.91556e-05
2.90965e-05
2.89792e-05
2.87682e-05
2.84178e-05
2.78764e-05
2.71096e-05
2.62697e-05
2.65969e-05
3.61938e-05
7.8236e-05
7.83646e-05
3.62538e-05
2.65859e-05
2.62083e-05
2.70426e-05
2.78152e-05
2.83664e-05
2.87283e-05
2.89506e-05
2.90779e-05
2.91451e-05
2.91771e-05
2.91904e-05
2.91948e-05
2.91957e-05
2.91954e-05
2.9194e-05
2.91893e-05
2.91761e-05
2.91449e-05
2.90792e-05
2.89542e-05
2.87349e-05
2.83763e-05
2.7828e-05
2.70569e-05
2.62209e-05
2.6592e-05
3.62498e-05
7.83434e-05
7.85777e-05
3.63714e-05
2.65788e-05
2.61074e-05
2.6933e-05
2.77143e-05
2.828e-05
2.86587e-05
2.8898e-05
2.90411e-05
2.91217e-05
2.91643e-05
2.91853e-05
2.91946e-05
2.91979e-05
2.91975e-05
2.91935e-05
2.91836e-05
2.91624e-05
2.91202e-05
2.90409e-05
2.89001e-05
2.86641e-05
2.82895e-05
2.7728e-05
2.69497e-05
2.61237e-05
2.65877e-05
3.63677e-05
7.85538e-05
7.88888e-05
3.65635e-05
2.65842e-05
2.59583e-05
2.6764e-05
2.75544e-05
2.81399e-05
2.85431e-05
2.8808e-05
2.89753e-05
2.90767e-05
2.9136e-05
2.91691e-05
2.91863e-05
2.91933e-05
2.91928e-05
2.91848e-05
2.91667e-05
2.91329e-05
2.90734e-05
2.89727e-05
2.88075e-05
2.85461e-05
2.81481e-05
2.75686e-05
2.67837e-05
2.598e-05
2.65976e-05
3.65604e-05
7.88612e-05
7.92893e-05
3.68514e-05
2.66251e-05
2.57625e-05
2.65275e-05
2.73234e-05
2.79323e-05
2.8367e-05
2.86661e-05
2.88661e-05
2.89963e-05
2.90787e-05
2.91289e-05
2.91571e-05
2.91695e-05
2.91689e-05
2.91553e-05
2.91257e-05
2.90743e-05
2.89909e-05
2.88605e-05
2.86617e-05
2.8366e-05
2.79374e-05
2.73368e-05
2.65498e-05
2.57903e-05
2.66444e-05
3.68496e-05
7.92567e-05
7.97686e-05
3.72679e-05
2.67365e-05
2.55182e-05
2.62094e-05
2.70035e-05
2.76381e-05
2.81108e-05
2.84524e-05
2.86936e-05
2.886e-05
2.89718e-05
2.90437e-05
2.90862e-05
2.91056e-05
2.91051e-05
2.90845e-05
2.90405e-05
2.89666e-05
2.88527e-05
2.86845e-05
2.84429e-05
2.81036e-05
2.76371e-05
2.70129e-05
2.62322e-05
2.5552e-05
2.67631e-05
3.72685e-05
7.97297e-05
8.03161e-05
3.78627e-05
2.69775e-05
2.52288e-05
2.57933e-05
2.65748e-05
2.7235e-05
2.7751e-05
2.81422e-05
2.84318e-05
2.86408e-05
2.87869e-05
2.88843e-05
2.89434e-05
2.89713e-05
2.89711e-05
2.89425e-05
2.8882e-05
2.87821e-05
2.86326e-05
2.84198e-05
2.81271e-05
2.77354e-05
2.72238e-05
2.65749e-05
2.58117e-05
2.5266e-05
2.70127e-05
3.78679e-05
8.02702e-05
8.09464e-05
3.87187e-05
2.74646e-05
2.49491e-05
2.52878e-05
2.60217e-05
2.67004e-05
2.72629e-05
2.77089e-05
2.80513e-05
2.83058e-05
2.84884e-05
2.86128e-05
2.86897e-05
2.87265e-05
2.8727e-05
2.86907e-05
2.86131e-05
2.84864e-05
2.82993e-05
2.80384e-05
2.76891e-05
2.72376e-05
2.66748e-05
2.60047e-05
2.52921e-05
2.4982e-05
2.75082e-05
3.87324e-05
8.08956e-05
8.19888e-05
3.99967e-05
2.84336e-05
2.48534e-05
2.47217e-05
2.53301e-05
2.60165e-05
2.66268e-05
2.71291e-05
2.75233e-05
2.78214e-05
2.80381e-05
2.81873e-05
2.82804e-05
2.83257e-05
2.83273e-05
2.82846e-05
2.81925e-05
2.8042e-05
2.78206e-05
2.75142e-05
2.71086e-05
2.65938e-05
2.59747e-05
2.52893e-05
2.46988e-05
2.48678e-05
2.84826e-05
4.00284e-05
8.19483e-05
8.31837e-05
4.21496e-05
3.00433e-05
2.50353e-05
2.41242e-05
2.45217e-05
2.51971e-05
2.58513e-05
2.64013e-05
2.6836e-05
2.71663e-05
2.74074e-05
2.75739e-05
2.7678e-05
2.77292e-05
2.77323e-05
2.76867e-05
2.75866e-05
2.74212e-05
2.71769e-05
2.68378e-05
2.63883e-05
2.58183e-05
2.51433e-05
2.44556e-05
2.40661e-05
2.50192e-05
3.00791e-05
4.22519e-05
8.31464e-05
8.44119e-05
4.54525e-05
3.22705e-05
2.58475e-05
2.38636e-05
2.38321e-05
2.44296e-05
2.50845e-05
2.56293e-05
2.60616e-05
2.63919e-05
2.66326e-05
2.67977e-05
2.69008e-05
2.69523e-05
2.69573e-05
2.69152e-05
2.68201e-05
2.66601e-05
2.642e-05
2.60837e-05
2.56367e-05
2.50685e-05
2.43809e-05
2.37533e-05
2.3783e-05
2.58023e-05
3.22999e-05
4.55975e-05
8.44089e-05
8.61278e-05
4.95388e-05
3.60775e-05
2.82396e-05
2.48723e-05
2.43227e-05
2.46488e-05
2.50761e-05
2.54294e-05
2.57329e-05
2.59665e-05
2.61331e-05
2.62467e-05
2.63189e-05
2.63568e-05
2.63634e-05
2.63384e-05
2.62785e-05
2.6175e-05
2.60139e-05
2.57793e-05
2.54643e-05
2.50952e-05
2.46377e-05
2.42717e-05
2.47927e-05
2.81876e-05
3.61417e-05
4.97445e-05
8.61911e-05
9.02409e-05
5.06849e-05
4.09358e-05
3.28429e-05
3.01088e-05
2.959e-05
2.948e-05
2.92821e-05
2.90762e-05
2.88803e-05
2.87041e-05
2.85592e-05
2.84563e-05
2.83939e-05
2.83669e-05
2.8372e-05
2.84096e-05
2.84831e-05
2.85965e-05
2.87483e-05
2.89274e-05
2.91266e-05
2.93344e-05
2.95246e-05
2.96042e-05
3.0099e-05
3.28342e-05
4.1011e-05
5.09487e-05
9.03961e-05
7.83832e-05
2.37414e-05
4.12872e-05
4.2129e-05
4.33735e-05
4.35869e-05
4.3182e-05
4.28041e-05
4.23058e-05
4.17867e-05
4.13228e-05
4.09537e-05
4.06876e-05
4.05167e-05
4.04331e-05
4.04329e-05
4.05163e-05
4.06877e-05
4.09555e-05
4.13277e-05
4.17951e-05
4.23194e-05
4.28308e-05
4.32577e-05
4.36842e-05
4.34822e-05
4.22448e-05
4.14037e-05
2.38665e-05
7.85982e-05
0.000211519
0.000107202
9.27964e-05
8.49467e-05
8.22969e-05
8.09409e-05
8.00252e-05
7.91738e-05
7.83871e-05
7.76993e-05
7.71444e-05
7.67794e-05
7.65583e-05
7.64161e-05
7.63436e-05
7.63398e-05
7.64046e-05
7.65388e-05
7.67525e-05
7.71167e-05
7.76651e-05
7.83449e-05
7.91134e-05
7.99692e-05
8.09035e-05
8.22933e-05
8.49996e-05
9.29334e-05
0.000107458
0.000212055
0.000187511
9.41397e-05
8.32233e-05
7.75406e-05
7.61514e-05
7.55838e-05
7.51128e-05
7.44911e-05
7.39773e-05
7.36068e-05
7.33167e-05
7.30654e-05
7.28577e-05
7.27225e-05
7.26597e-05
7.26675e-05
7.2746e-05
7.28968e-05
7.31194e-05
7.33796e-05
7.36812e-05
7.40626e-05
7.45999e-05
7.52146e-05
7.56505e-05
7.61605e-05
7.74692e-05
8.30434e-05
9.37806e-05
0.000186696
7.04717e-05
3.03359e-05
5.10086e-05
5.41123e-05
5.71583e-05
5.95218e-05
6.0878e-05
6.10649e-05
6.05028e-05
5.95675e-05
5.85643e-05
5.76655e-05
5.69575e-05
5.64781e-05
5.62394e-05
5.62437e-05
5.649e-05
5.69746e-05
5.76836e-05
5.85778e-05
5.95713e-05
6.04959e-05
6.10429e-05
6.08113e-05
5.93751e-05
5.69635e-05
5.38999e-05
5.08015e-05
2.99764e-05
7.01296e-05
8.16198e-05
5.63946e-05
5.06748e-05
4.45727e-05
4.02287e-05
3.79444e-05
3.6625e-05
3.56687e-05
3.49208e-05
3.42038e-05
3.35657e-05
3.30448e-05
3.26571e-05
3.24037e-05
3.22795e-05
3.22804e-05
3.2406e-05
3.26603e-05
3.30478e-05
3.35677e-05
3.42082e-05
3.49248e-05
3.56624e-05
3.65666e-05
3.78912e-05
4.01974e-05
4.45347e-05
5.05011e-05
5.59242e-05
8.13401e-05
7.85067e-05
5.966e-05
4.8816e-05
3.69172e-05
3.01467e-05
2.71245e-05
2.6061e-05
2.56863e-05
2.54978e-05
2.52655e-05
2.50378e-05
2.48573e-05
2.4731e-05
2.4652e-05
2.46117e-05
2.46055e-05
2.46333e-05
2.47006e-05
2.48176e-05
2.49926e-05
2.52251e-05
2.54828e-05
2.568e-05
2.60675e-05
2.71588e-05
3.02381e-05
3.69296e-05
4.86294e-05
5.92943e-05
7.83691e-05
7.72227e-05
5.79068e-05
4.36945e-05
3.15771e-05
2.55936e-05
2.32831e-05
2.24654e-05
2.23072e-05
2.23627e-05
2.24432e-05
2.25053e-05
2.25538e-05
2.26014e-05
2.26408e-05
2.26595e-05
2.26524e-05
2.26208e-05
2.25725e-05
2.25255e-05
2.24805e-05
2.24311e-05
2.23737e-05
2.23476e-05
2.25419e-05
2.33796e-05
2.56493e-05
3.15927e-05
4.35649e-05
5.76599e-05
7.71952e-05
7.64556e-05
5.6435e-05
3.84569e-05
2.79871e-05
2.36356e-05
2.20465e-05
2.17944e-05
2.19538e-05
2.22018e-05
2.24269e-05
2.26012e-05
2.27309e-05
2.28271e-05
2.28922e-05
2.29233e-05
2.29187e-05
2.28798e-05
2.2811e-05
2.27174e-05
2.25967e-05
2.24402e-05
2.22424e-05
2.20282e-05
2.18995e-05
2.21489e-05
2.3709e-05
2.79931e-05
3.83682e-05
5.62925e-05
7.64944e-05
7.59102e-05
5.44219e-05
3.44596e-05
2.58395e-05
2.25865e-05
2.18568e-05
2.20201e-05
2.23738e-05
2.2714e-05
2.29923e-05
2.32038e-05
2.33574e-05
2.34649e-05
2.35335e-05
2.35661e-05
2.35642e-05
2.35288e-05
2.34608e-05
2.33589e-05
2.32164e-05
2.30221e-05
2.2766e-05
2.24487e-05
2.21095e-05
2.19398e-05
2.26332e-05
2.58391e-05
3.44528e-05
5.43792e-05
7.59652e-05
7.54609e-05
5.2171e-05
3.20132e-05
2.45617e-05
2.21204e-05
2.19813e-05
2.24041e-05
2.28778e-05
2.32768e-05
2.35835e-05
2.38076e-05
2.3965e-05
2.40709e-05
2.4136e-05
2.41669e-05
2.41668e-05
2.41364e-05
2.40742e-05
2.39746e-05
2.38271e-05
2.36163e-05
2.3324e-05
2.29362e-05
2.24639e-05
2.20255e-05
2.21319e-05
2.45412e-05
3.20185e-05
5.21532e-05
7.55259e-05
7.49202e-05
4.99332e-05
3.03713e-05
2.3691e-05
2.19659e-05
2.21978e-05
2.27719e-05
2.33137e-05
2.37455e-05
2.40658e-05
2.42924e-05
2.44465e-05
2.45464e-05
2.4606e-05
2.46339e-05
2.46347e-05
2.46089e-05
2.45529e-05
2.44584e-05
2.43117e-05
2.40934e-05
2.37802e-05
2.33508e-05
2.28024e-05
2.22087e-05
2.19484e-05
2.36625e-05
3.0378e-05
4.99365e-05
7.49808e-05
7.44745e-05
4.79631e-05
2.92694e-05
2.32295e-05
2.20439e-05
2.24543e-05
2.30962e-05
2.36656e-05
2.41075e-05
2.44281e-05
2.46495e-05
2.47957e-05
2.48874e-05
2.49403e-05
2.49647e-05
2.49658e-05
2.49438e-05
2.4894e-05
2.48063e-05
2.46646e-05
2.44473e-05
2.41285e-05
2.3684e-05
2.31051e-05
2.24464e-05
2.20175e-05
2.32035e-05
2.92768e-05
4.79829e-05
7.45278e-05
7.41241e-05
4.63546e-05
2.85216e-05
2.30042e-05
2.22005e-05
2.27054e-05
2.33706e-05
2.39415e-05
2.4377e-05
2.46879e-05
2.48983e-05
2.50337e-05
2.5116e-05
2.5162e-05
2.51827e-05
2.51836e-05
2.5165e-05
2.51213e-05
2.50414e-05
2.49081e-05
2.46986e-05
2.43865e-05
2.39461e-05
2.3366e-05
2.26883e-05
2.21732e-05
2.2984e-05
2.85295e-05
4.63864e-05
7.41708e-05
7.38579e-05
4.51226e-05
2.80202e-05
2.2903e-05
2.23636e-05
2.29226e-05
2.3591e-05
2.41508e-05
2.45715e-05
2.48673e-05
2.50639e-05
2.51874e-05
2.52602e-05
2.52996e-05
2.53168e-05
2.53175e-05
2.53017e-05
2.52636e-05
2.51918e-05
2.50687e-05
2.48712e-05
2.45725e-05
2.41464e-05
2.35791e-05
2.29023e-05
2.23391e-05
2.28889e-05
2.80288e-05
4.51623e-05
7.38994e-05
7.36648e-05
4.42429e-05
2.76907e-05
2.28596e-05
2.24992e-05
2.30911e-05
2.37557e-05
2.4301e-05
2.47053e-05
2.49856e-05
2.51687e-05
2.52812e-05
2.53457e-05
2.53794e-05
2.53936e-05
2.5394e-05
2.53805e-05
2.53473e-05
2.52828e-05
2.51696e-05
2.49845e-05
2.47008e-05
2.42916e-05
2.37403e-05
2.30706e-05
2.24784e-05
2.28516e-05
2.77029e-05
4.42867e-05
7.37028e-05
7.35376e-05
4.36811e-05
2.74937e-05
2.2843e-05
2.25931e-05
2.32048e-05
2.38647e-05
2.43981e-05
2.47891e-05
2.5057e-05
2.52296e-05
2.53337e-05
2.5392e-05
2.54216e-05
2.54338e-05
2.5434e-05
2.54221e-05
2.53924e-05
2.53335e-05
2.5228e-05
2.5053e-05
2.47815e-05
2.43861e-05
2.3848e-05
2.31851e-05
2.25754e-05
2.28388e-05
2.75076e-05
4.37261e-05
7.35733e-05
7.34727e-05
4.3407e-05
2.7402e-05
2.28381e-05
2.26406e-05
2.32618e-05
2.3919e-05
2.4446e-05
2.48297e-05
2.50909e-05
2.52578e-05
2.53574e-05
2.54124e-05
2.54398e-05
2.54508e-05
2.54509e-05
2.54399e-05
2.54121e-05
2.53562e-05
2.52549e-05
2.50855e-05
2.48209e-05
2.4433e-05
2.39021e-05
2.32428e-05
2.26244e-05
2.28353e-05
2.7416e-05
4.34516e-05
7.35074e-05
7.34683e-05
4.34024e-05
2.74006e-05
2.28374e-05
2.26403e-05
2.32619e-05
2.39195e-05
2.44467e-05
2.48306e-05
2.50918e-05
2.52587e-05
2.53582e-05
2.54131e-05
2.54404e-05
2.54514e-05
2.54515e-05
2.54405e-05
2.54128e-05
2.5357e-05
2.52559e-05
2.50866e-05
2.4822e-05
2.44341e-05
2.39029e-05
2.32431e-05
2.2624e-05
2.2834e-05
2.74138e-05
4.34456e-05
7.35033e-05
7.35244e-05
4.36674e-05
2.74895e-05
2.28406e-05
2.25921e-05
2.32052e-05
2.38662e-05
2.44004e-05
2.47918e-05
2.50598e-05
2.52322e-05
2.5336e-05
2.5394e-05
2.54234e-05
2.54354e-05
2.54356e-05
2.54239e-05
2.53945e-05
2.53359e-05
2.52308e-05
2.50561e-05
2.47848e-05
2.43892e-05
2.38505e-05
2.31863e-05
2.25746e-05
2.28352e-05
2.75012e-05
4.37082e-05
7.35606e-05
7.36428e-05
4.42195e-05
2.76841e-05
2.28558e-05
2.24976e-05
2.30919e-05
2.37585e-05
2.43051e-05
2.47099e-05
2.49902e-05
2.51729e-05
2.52849e-05
2.53488e-05
2.53821e-05
2.53961e-05
2.53966e-05
2.53833e-05
2.53506e-05
2.52867e-05
2.51741e-05
2.49896e-05
2.47062e-05
2.42968e-05
2.37447e-05
2.30731e-05
2.24778e-05
2.28467e-05
2.76933e-05
4.42564e-05
7.36807e-05
7.38273e-05
4.50894e-05
2.80138e-05
2.28984e-05
2.23617e-05
2.2924e-05
2.35954e-05
2.41568e-05
2.45781e-05
2.48738e-05
2.50696e-05
2.51922e-05
2.52641e-05
2.53028e-05
2.53197e-05
2.53205e-05
2.5305e-05
2.52677e-05
2.51967e-05
2.50746e-05
2.48779e-05
2.45797e-05
2.41537e-05
2.35855e-05
2.29064e-05
2.23396e-05
2.28844e-05
2.80198e-05
4.51195e-05
7.38676e-05
7.40858e-05
4.6312e-05
2.85165e-05
2.29987e-05
2.21983e-05
2.27078e-05
2.33769e-05
2.39498e-05
2.43857e-05
2.46958e-05
2.4905e-05
2.5039e-05
2.512e-05
2.51651e-05
2.51854e-05
2.51864e-05
2.51683e-05
2.51255e-05
2.50467e-05
2.49147e-05
2.47064e-05
2.43951e-05
2.3955e-05
2.33742e-05
2.26942e-05
2.21752e-05
2.29802e-05
2.85213e-05
4.63324e-05
7.41288e-05
7.44293e-05
4.79116e-05
2.9264e-05
2.32215e-05
2.20407e-05
2.2458e-05
2.31047e-05
2.36762e-05
2.41179e-05
2.4437e-05
2.46564e-05
2.48006e-05
2.48907e-05
2.49425e-05
2.49664e-05
2.49676e-05
2.49463e-05
2.48976e-05
2.48112e-05
2.4671e-05
2.44551e-05
2.41375e-05
2.36936e-05
2.31142e-05
2.24532e-05
2.20198e-05
2.31991e-05
2.92678e-05
4.79191e-05
7.44754e-05
7.48691e-05
4.9873e-05
3.03651e-05
2.36795e-05
2.19619e-05
2.22033e-05
2.27832e-05
2.33265e-05
2.3757e-05
2.40746e-05
2.42982e-05
2.44497e-05
2.45476e-05
2.46059e-05
2.46334e-05
2.46345e-05
2.46095e-05
2.45548e-05