/*--------------------------------*- C++ -*----------------------------------*\
| =========                 |                                                 |
| \\      /  F ield         | OpenFOAM: The Open Source CFD Toolbox           |
|  \\    /   O peration     | Version:  2312                                  |
|   \\  /    A nd           | Website:  www.openfoam.com                      |
|    \\/     M anipulation  |                                                 |
\*---------------------------------------------------------------------------*/
FoamFile
{
    version     2.0;
    format      ascii;
    arch        "LSB;label=32;scalar=64";
    class       volScalarField;
    location    "1000";
    object      nut;
}
// * * * * * * * * * * * * * * * * * * * * * * * * * * * * * * * * * * * * * //

dimensions      [0 2 -1 0 0 0 0];

internalField   nonuniform List<scalar> 
27000
(
3.94946e-06
6.70407e-06
9.3657e-06
1.17499e-05
1.40675e-05
1.62305e-05
1.81939e-05
1.98522e-05
2.12785e-05
2.24975e-05
2.35098e-05
2.43121e-05
2.49072e-05
2.53023e-05
2.54997e-05
2.55002e-05
2.53037e-05
2.49094e-05
2.43149e-05
2.35123e-05
2.25002e-05
2.12813e-05
1.98547e-05
1.81958e-05
1.62314e-05
1.40668e-05
1.17473e-05
9.36146e-06
6.69982e-06
3.94702e-06
5.748e-06
1.27801e-06
5.15929e-06
9.07777e-06
1.31546e-05
1.70237e-05
2.0674e-05
2.40649e-05
2.71326e-05
2.9855e-05
3.22029e-05
3.41497e-05
3.56606e-05
3.66912e-05
3.72121e-05
3.721e-05
3.66851e-05
3.56514e-05
3.41391e-05
3.21935e-05
2.98472e-05
2.71259e-05
2.40588e-05
2.06689e-05
1.70198e-05
1.31506e-05
9.07439e-06
5.15525e-06
1.27595e-06
5.74488e-06
9.22367e-06
7.13088e-06
1.45768e-05
2.61935e-05
3.68642e-05
4.61793e-05
5.46866e-05
6.26347e-05
6.98558e-05
7.62213e-05
8.16528e-05
8.609e-05
8.94864e-05
9.17857e-05
9.29441e-05
9.29412e-05
9.17782e-05
8.94785e-05
8.60889e-05
8.16679e-05
7.6264e-05
6.99196e-05
6.27109e-05
5.47658e-05
4.62552e-05
3.69275e-05
2.62529e-05
1.46056e-05
7.11808e-06
9.21993e-06
1.21567e-05
1.08471e-05
2.61707e-05
5.27468e-05
7.82374e-05
9.62967e-05
0.00010977
0.000120785
0.000130033
0.000137697
0.000143963
0.000148919
0.000152616
0.000155075
0.000156304
0.000156306
0.000155081
0.000152633
0.000148958
0.000144034
0.000137804
0.000130174
0.000120942
0.000109919
9.6425e-05
7.83657e-05
5.28971e-05
2.62524e-05
1.08409e-05
1.21545e-05
1.49274e-05
1.44861e-05
3.6998e-05
7.63535e-05
0.000113335
0.000139139
0.000155979
0.000167835
0.000176689
0.000183101
0.000188031
0.000191834
0.000194606
0.000196423
0.000197325
0.00019733
0.000196439
0.000194638
0.000191886
0.000188105
0.000183174
0.000176806
0.000167977
0.000156114
0.000139276
0.0001135
7.65428e-05
3.7096e-05
1.4483e-05
1.49273e-05
1.74934e-05
1.84219e-05
4.78201e-05
9.54506e-05
0.000137996
0.000167418
0.000185487
0.000196852
0.000204345
0.000209392
0.000212898
0.000215388
0.000217117
0.000218218
0.000218758
0.000218763
0.000218235
0.000217149
0.000215437
0.000212965
0.000209474
0.000204449
0.000196969
0.000185618
0.000167598
0.000138191
9.5647e-05
4.79181e-05
1.84198e-05
1.74951e-05
1.98304e-05
2.25568e-05
5.86623e-05
0.000111706
0.000155966
0.000185292
0.000202979
0.000213315
0.000219432
0.000223133
0.00022543
0.000226892
0.000227825
0.000228386
0.000228653
0.000228658
0.000228402
0.000227854
0.000226936
0.00022549
0.000223207
0.000219519
0.000213414
0.000203098
0.000185444
0.000156144
0.000111875
5.87295e-05
2.25497e-05
1.98335e-05
2.19221e-05
2.67374e-05
6.91454e-05
0.00012574
0.000170064
0.000197533
0.000213525
0.000222397
0.00022721
0.0002298
0.000231191
0.000231941
0.000232347
0.00023256
0.000232655
0.00023266
0.000232576
0.000232374
0.000231981
0.000231243
0.000229864
0.000227283
0.00022248
0.000213623
0.00019765
0.000170186
0.000125857
6.9183e-05
2.67252e-05
2.19273e-05
2.37373e-05
3.08474e-05
7.89328e-05
0.000137725
0.000181113
0.000206221
0.000220141
0.000227438
0.000231079
0.000232799
0.000233551
0.000233842
0.00023393
0.000233943
0.000233941
0.000233946
0.000233958
0.000233955
0.000233878
0.000233596
0.000232851
0.000231137
0.000227501
0.00022021
0.000206296
0.000181177
0.000137787
7.89402e-05
3.08305e-05
2.37432e-05
2.52919e-05
3.47272e-05
8.78134e-05
0.000147755
0.000188891
0.000212214
0.00022434
0.000230263
0.000232943
0.000234013
0.000234338
0.000234351
0.000234265
0.000234176
0.000234127
0.000234132
0.00023419
0.000234287
0.000234381
0.000234373
0.000234052
0.000232982
0.000230303
0.00022438
0.000212254
0.000188927
0.000147772
8.77937e-05
3.47062e-05
2.5298e-05
2.6587e-05
3.82217e-05
9.55748e-05
0.000156159
0.000195358
0.000216597
0.000227096
0.000231877
0.000233811
0.00023442
0.000234472
0.00023433
0.00023416
0.000234029
0.000233962
0.000233966
0.00023404
0.000234177
0.000234352
0.000234496
0.000234444
0.000233831
0.000231893
0.000227108
0.000216603
0.000195356
0.000156136
9.55316e-05
3.8197e-05
2.65931e-05
2.76223e-05
4.11954e-05
0.000102003
0.000162879
0.000200403
0.000219826
0.000228954
0.000232826
0.000234204
0.000234497
0.000234381
0.000234161
0.000233959
0.000233818
0.000233749
0.000233752
0.000233826
0.000233971
0.000234174
0.000234394
0.000234506
0.000234206
0.00023282
0.00022894
0.000219803
0.000200367
0.000162824
0.000101942
4.11673e-05
2.76285e-05
2.83982e-05
4.35329e-05
0.000106948
0.000167947
0.000204091
0.000222103
0.000230187
0.000233389
0.000234377
0.000234464
0.000234252
0.000233996
0.000233789
0.000233652
0.000233587
0.000233589
0.000233657
0.000233795
0.000234002
0.000234254
0.00023446
0.000234365
0.000233367
0.000230154
0.000222057
0.000204031
0.000167866
0.000106874
4.35024e-05
2.84044e-05
2.8915e-05
4.51436e-05
0.000110302
0.000171344
0.000206502
0.000223552
0.000230942
0.000233709
0.000234451
0.000234415
0.000234152
0.000233884
0.00023368
0.000233551
0.000233491
0.000233492
0.000233554
0.000233682
0.000233884
0.000234147
0.000234402
0.000234428
0.000233675
0.000230896
0.000223494
0.000206429
0.000171254
0.000110221
4.51114e-05
2.89213e-05
2.9173e-05
4.59652e-05
0.000111996
0.00017304
0.000207691
0.000224256
0.000231302
0.000233855
0.000234479
0.000234386
0.000234102
0.00023383
0.00023363
0.000233507
0.00023345
0.00023345
0.000233508
0.00023363
0.000233827
0.000234093
0.000234369
0.000234451
0.000233815
0.00023125
0.000224192
0.000207613
0.000172947
0.000111912
4.59322e-05
2.91794e-05
2.91724e-05
4.59662e-05
0.000112
0.000173043
0.000207693
0.000224258
0.000231303
0.000233857
0.000234482
0.000234389
0.000234105
0.000233833
0.000233634
0.00023351
0.000233453
0.000233454
0.000233511
0.000233634
0.00023383
0.000234096
0.000234372
0.000234454
0.000233817
0.000231252
0.000224194
0.000207615
0.000172951
0.000111917
4.59332e-05
2.91789e-05
2.89132e-05
4.51465e-05
0.000110314
0.000171353
0.000206509
0.000223557
0.000230947
0.000233715
0.000234458
0.000234424
0.000234161
0.000233893
0.00023369
0.000233561
0.000233501
0.000233501
0.000233563
0.000233691
0.000233893
0.000234156
0.00023441
0.000234435
0.000233681
0.000230901
0.000223499
0.000206436
0.000171263
0.000110234
4.51141e-05
2.89197e-05
2.83953e-05
4.35374e-05
0.000106969
0.000167964
0.000204104
0.000222112
0.000230196
0.000233399
0.000234388
0.000234477
0.000234266
0.000234011
0.000233803
0.000233667
0.000233601
0.000233603
0.000233671
0.000233809
0.000234015
0.000234267
0.000234472
0.000234375
0.000233375
0.000230161
0.000222066
0.000204043
0.000167883
0.000106895
4.35065e-05
2.84018e-05
2.76186e-05
4.12008e-05
0.000102033
0.000162909
0.000200425
0.000219843
0.000228968
0.00023284
0.000234219
0.000234514
0.000234399
0.000234178
0.000233976
0.000233835
0.000233765
0.000233767
0.000233842
0.000233986
0.00023419
0.000234409
0.00023452
0.000234218
0.000232831
0.00022895
0.000219815
0.000200385
0.000162851
0.000101971
4.11725e-05
2.7625e-05
2.65826e-05
3.82275e-05
9.5613e-05
0.000156203
0.000195393
0.000216622
0.000227117
0.000231895
0.000233829
0.000234438
0.00023449
0.000234347
0.000234176
0.000234044
0.000233976
0.00023398
0.000234054
0.000234191
0.000234366
0.00023451
0.000234457
0.000233844
0.000231904
0.000227119
0.000216618
0.000195379
0.000156171
9.55666e-05
3.82024e-05
2.65888e-05
2.52872e-05
3.47325e-05
8.78591e-05
0.000147813
0.00018894
0.00021225
0.000224368
0.000230286
0.000232963
0.000234032
0.000234354
0.000234365
0.000234277
0.000234187
0.000234136
0.00023414
0.000234199
0.000234297
0.000234392
0.000234385
0.000234064
0.000232994
0.000230314
0.000224393
0.000212272
0.000188955
0.000147813
8.78321e-05
3.47112e-05
2.52931e-05
2.37324e-05
3.08514e-05
7.89844e-05
0.0001378
0.000181175
0.000206272
0.000220179
0.000227467
0.000231102
0.000232816
0.000233564
0.000233851
0.000233935
0.000233946
0.000233943
0.000233947
0.00023396
0.000233959
0.000233883
0.000233603
0.000232861
0.000231148
0.000227514
0.000220227
0.00020632
0.000181213
0.000137834
7.89793e-05
3.08341e-05
2.37378e-05
2.19173e-05
2.67396e-05
6.92016e-05
0.000125834
0.000170149
0.000197603
0.000213576
0.000222433
0.000227236
0.000229817
0.0002312
0.000231944
0.000232345
0.000232555
0.000232648
0.000232653
0.000232571
0.000232371
0.000231981
0.000231248
0.000229872
0.000227297
0.000222498
0.000213648
0.000197684
0.000170231
0.00012591
6.92209e-05
2.67265e-05
2.19218e-05
1.98263e-05
2.25568e-05
5.87242e-05
0.000111824
0.000156083
0.000185385
0.000203047
0.000213363
0.000219465
0.000223153
0.000225439
0.000226894
0.00022782
0.000228377
0.000228643
0.000228648
0.000228394
0.000227849
0.000226936
0.000225495
0.000223219
0.000219541
0.000213445
0.000203139
0.000185496
0.000156208
0.000111941
5.87681e-05
2.25485e-05
1.98288e-05
1.74895e-05
1.84225e-05
4.7892e-05
9.55857e-05
0.000138135
0.000167533
0.000185574
0.000196919
0.000204392
0.000209418
0.000212914
0.000215395
0.000217118
0.000218215
0.000218752
0.000218758
0.000218233
0.00021715
0.000215444
0.000212978
0.000209496
0.000204486
0.00019702
0.000185682
0.000167672
0.000138278
9.57267e-05
4.79617e-05
1.84189e-05
1.74907e-05
1.49236e-05
1.44835e-05
3.70622e-05
7.64894e-05
0.00011348
0.000139264
0.000156087
0.000167922
0.000176752
0.000183129
0.000188066
0.00019186
0.000194625
0.000196437
0.000197337
0.000197343
0.000196455
0.000194659
0.000191913
0.000188139
0.000183205
0.000176861
0.00016805
0.000156207
0.00013938
0.000113609
7.66313e-05
3.71342e-05
1.44795e-05
1.49232e-05
1.21531e-05
1.08414e-05
2.62184e-05
5.28581e-05
7.83591e-05
9.6417e-05
0.00010989
0.000120898
0.000130132
0.000137775
0.000144023
0.000148967
0.000152656
0.000155113
0.000156342
0.000156345
0.000155124
0.00015268
0.000149011
0.000144096
0.000137878
0.000130262
0.000121042
0.000110027
9.65343e-05
7.84704e-05
5.298e-05
2.62816e-05
1.08356e-05
1.21511e-05
9.22051e-06
7.1238e-06
1.45896e-05
2.62354e-05
3.69189e-05
4.62445e-05
5.47521e-05
6.27006e-05
6.99179e-05
7.62751e-05
8.16944e-05
8.61291e-05
8.95266e-05
9.18279e-05
9.29887e-05
9.29881e-05
9.18272e-05
8.95288e-05
8.61398e-05
8.17221e-05
7.63236e-05
6.99827e-05
6.27754e-05
5.4829e-05
4.63162e-05
3.69781e-05
2.62882e-05
1.4614e-05
7.11393e-06
9.21735e-06
5.74596e-06
1.27673e-06
5.15498e-06
9.07395e-06
1.31514e-05
1.70213e-05
2.06712e-05
2.40624e-05
2.71307e-05
2.98534e-05
3.22016e-05
3.41512e-05
3.56643e-05
3.66964e-05
3.72186e-05
3.72174e-05
3.66931e-05
3.56594e-05
3.41459e-05
3.21978e-05
2.98506e-05
2.71286e-05
2.4061e-05
2.0671e-05
1.70208e-05
1.31499e-05
9.07219e-06
5.152e-06
1.27497e-06
5.74338e-06
3.94802e-06
6.70134e-06
9.36227e-06
1.17463e-05
1.40639e-05
1.62267e-05
1.81899e-05
1.98479e-05
2.12739e-05
2.24924e-05
2.35042e-05
2.43053e-05
2.48999e-05
2.52946e-05
2.54918e-05
2.54921e-05
2.52955e-05
2.49013e-05
2.43071e-05
2.35057e-05
2.2494e-05
2.12754e-05
1.98492e-05
1.81908e-05
1.62268e-05
1.40629e-05
1.17439e-05
9.35874e-06
6.69784e-06
3.94602e-06
3.56838e-06
6.09858e-06
8.69888e-06
1.10629e-05
1.34261e-05
1.56607e-05
1.77224e-05
1.94987e-05
2.104e-05
2.23621e-05
2.34687e-05
2.43667e-05
2.50512e-05
2.55095e-05
2.57385e-05
2.57376e-05
2.55066e-05
2.50465e-05
2.43605e-05
2.34627e-05
2.23551e-05
2.10317e-05
1.94874e-05
1.77118e-05
1.56535e-05
1.34236e-05
1.10658e-05
8.70605e-06
6.10756e-06
3.57395e-06
5.13349e-06
1.62965e-06
7.49824e-06
1.10926e-05
1.46783e-05
1.76866e-05
2.02698e-05
2.26856e-05
2.47888e-05
2.6596e-05
2.81118e-05
2.93258e-05
3.02306e-05
3.08333e-05
3.11358e-05
3.1137e-05
3.08367e-05
3.02351e-05
2.93292e-05
2.81113e-05
2.65898e-05
2.47797e-05
2.2678e-05
2.02705e-05
1.77139e-05
1.47099e-05
1.11196e-05
7.51524e-06
1.63875e-06
5.14189e-06
8.69971e-06
1.02958e-05
1.32179e-05
1.66578e-05
2.1809e-05
2.72587e-05
3.2306e-05
3.67576e-05
4.08279e-05
4.44654e-05
4.75118e-05
4.99746e-05
5.18416e-05
5.30998e-05
5.374e-05
5.37558e-05
5.31466e-05
5.19164e-05
5.00694e-05
4.76052e-05
4.44765e-05
4.08065e-05
3.67211e-05
3.22593e-05
2.72059e-05
2.17697e-05
1.66291e-05
1.32181e-05
1.03553e-05
8.70851e-06
1.15753e-05
1.35026e-05
1.78336e-05
2.54646e-05
3.55127e-05
4.61338e-05
5.56899e-05
6.40983e-05
7.15659e-05
7.83058e-05
8.40562e-05
8.86687e-05
9.21102e-05
9.43937e-05
9.55472e-05
9.55843e-05
9.45018e-05
9.2278e-05
8.88734e-05
8.42504e-05
7.84312e-05
7.15926e-05
6.40575e-05
5.55809e-05
4.59887e-05
3.53702e-05
2.53814e-05
1.78195e-05
1.35527e-05
1.15795e-05
1.44202e-05
1.59725e-05
2.26779e-05
3.55029e-05
5.36971e-05
7.27948e-05
8.89882e-05
0.000101893
0.00011241
0.000121469
0.000128882
0.000134628
0.000138763
0.000141396
0.000142692
0.000142715
0.000141462
0.000138864
0.000134763
0.000128996
0.00012154
0.000112369
0.00010174
8.87156e-05
7.24843e-05
5.34764e-05
3.53729e-05
2.26138e-05
1.60146e-05
1.44186e-05
1.71299e-05
1.81704e-05
2.84633e-05
4.66183e-05
7.24411e-05
9.88621e-05
0.000121157
0.000137454
0.000149286
0.000158368
0.000165411
0.000170724
0.0001745
0.000176898
0.000178066
0.000178078
0.000176932
0.000174546
0.000170769
0.000165426
0.000158332
0.000149181
0.000137275
0.00012087
9.85357e-05
7.21727e-05
4.64935e-05
2.83857e-05
1.82039e-05
1.71241e-05
1.96415e-05
2.05566e-05
3.38361e-05
5.79414e-05
9.00944e-05
0.000121464
0.000146065
0.000163572
0.000175752
0.000184385
0.000190631
0.000195125
0.000198232
0.000200179
0.000201116
0.000201121
0.000200189
0.000198241
0.000195122
0.000190601
0.000184322
0.000175652
0.000163432
0.000145874
0.000121221
8.9919e-05
5.78882e-05
3.38002e-05
2.05526e-05
1.96351e-05
2.19367e-05
2.30502e-05
3.89792e-05
6.86775e-05
0.000105492
0.000139115
0.000164183
0.000181645
0.000193426
0.000201349
0.00020673
0.00021039
0.000212815
0.000214294
0.000214995
0.000214994
0.00021429
0.000212802
0.000210362
0.000206683
0.000201282
0.000193341
0.000181543
0.000164064
0.000138997
0.000105449
6.87233e-05
3.89656e-05
2.30448e-05
2.19282e-05
2.40371e-05
2.53757e-05
4.3913e-05
7.87409e-05
0.000118702
0.000152764
0.000177343
0.000194011
0.000204931
0.000211973
0.000216501
0.000219406
0.000221235
0.000222308
0.000222803
0.000222799
0.000222294
0.00022121
0.000219367
0.000216449
0.000211911
0.000204863
0.000193942
0.00017728
0.000152733
0.000118757
7.88489e-05
4.39188e-05
2.53739e-05
2.40293e-05
2.58795e-05
2.74672e-05
4.83848e-05
8.74977e-05
0.000130023
0.000163504
0.000187001
0.000202514
0.000212372
0.000218481
0.000222213
0.000224469
0.000225806
0.000226553
0.000226885
0.000226879
0.000226535
0.000225777
0.000224428
0.000222164
0.000218429
0.000212323
0.000202475
0.000186978
0.000163515
0.000130091
8.7627e-05
4.8407e-05
2.74699e-05
2.58728e-05
2.74415e-05
2.92904e-05
5.22718e-05
9.46938e-05
0.000138484
0.000171604
0.000194024
0.000208366
0.000217176
0.000222416
0.000225452
0.000227174
0.000228126
0.000228623
0.000228832
0.000228826
0.000228606
0.000228099
0.000227139
0.000225413
0.000222379
0.000217148
0.000208353
0.000194034
0.000171646
0.000138573
9.48249e-05
5.23079e-05
2.92975e-05
2.74359e-05
2.87078e-05
3.08068e-05
5.55031e-05
0.00010043
0.000144891
0.000177558
0.00019903
0.000212351
0.000220257
0.000224766
0.00022724
0.000228548
0.000229211
0.000229526
0.000229649
0.000229644
0.000229512
0.000229189
0.000228521
0.000227214
0.000224746
0.000220251
0.000212363
0.000199065
0.000177622
0.000144989
0.000100549
5.55481e-05
3.08176e-05
2.87031e-05
2.96671e-05
3.19812e-05
5.80177e-05
0.000104796
0.000149583
0.00018178
0.000202471
0.000214985
0.000222189
0.00022614
0.000228197
0.000229206
0.000229667
0.000229859
0.000229923
0.000229919
0.000229848
0.000229651
0.000229189
0.000228184
0.000226137
0.000222201
0.000215016
0.000202524
0.000181855
0.000149677
0.000104889
5.80629e-05
3.19942e-05
2.96629e-05
3.03111e-05
3.27827e-05
5.97412e-05
0.000107757
0.000152687
0.000184505
0.000204635
0.00021659
0.000223318
0.000226897
0.000228679
0.000229497
0.000229831
0.000229947
0.000229977
0.000229974
0.00022994
0.000229821
0.000229488
0.000228677
0.000226906
0.000223343
0.000216634
0.000204697
0.000184583
0.000152775
0.000107836
5.97861e-05
3.2797e-05
3.03073e-05
3.06345e-05
3.31886e-05
6.06164e-05
0.000109247
0.000154234
0.000185845
0.000205683
0.000217352
0.000223838
0.00022723
0.000228878
0.000229602
0.000229876
0.000229956
0.000229969
0.000229967
0.00022995
0.000229869
0.000229598
0.000228881
0.000227246
0.000223869
0.000217401
0.000205748
0.000185923
0.000154318
0.00010932
6.06601e-05
3.32033e-05
3.06309e-05
3.06349e-05
3.31868e-05
6.06147e-05
0.000109249
0.000154237
0.000185848
0.000205685
0.000217352
0.000223836
0.000227228
0.000228874
0.000229597
0.000229871
0.000229951
0.000229964
0.000229962
0.000229946
0.000229865
0.000229594
0.000228878
0.000227244
0.000223868
0.0002174
0.000205749
0.000185924
0.000154319
0.00010932
6.06572e-05
3.32012e-05
3.06311e-05
3.03121e-05
3.27771e-05
5.9736e-05
0.000107762
0.000152696
0.000184513
0.00020464
0.00021659
0.000223313
0.000226888
0.000228668
0.000229484
0.000229818
0.000229933
0.000229963
0.000229961
0.000229927
0.000229809
0.000229477
0.000228668
0.000226899
0.000223339
0.000216632
0.000204699
0.000184586
0.000152778
0.000107838
5.97774e-05
3.27907e-05
3.0308e-05
2.96687e-05
3.1972e-05
5.80086e-05
0.000104805
0.000149598
0.000181793
0.000202478
0.000214985
0.000222182
0.000226128
0.000228181
0.000229187
0.000229647
0.000229839
0.000229903
0.0002299
0.000229829
0.000229634
0.000229174
0.000228172
0.000226128
0.000222196
0.000215015
0.000202527
0.00018186
0.000149681
0.00010489
5.80483e-05
3.19842e-05
2.96642e-05
2.87099e-05
3.07943e-05
5.54878e-05
0.000100445
0.000144909
0.000177573
0.000199038
0.000212351
0.00022025
0.000224752
0.000227222
0.000228527
0.00022919
0.000229505
0.000229628
0.000229623
0.000229492
0.000229171
0.000228505
0.000227202
0.000224738
0.000220247
0.000212365
0.000199071
0.000177629
0.000144994
0.000100548
5.55249e-05
3.08042e-05
2.87049e-05
2.74439e-05
2.92752e-05
5.22499e-05
9.4712e-05
0.000138504
0.00017162
0.000194033
0.000208368
0.00021717
0.000222404
0.000225437
0.000227158
0.000228109
0.000228606
0.000228816
0.000228811
0.000228591
0.000228085
0.000227127
0.000225405
0.000222375
0.000217149
0.00020836
0.000194043
0.000171656
0.000138577
9.48207e-05
5.22781e-05
2.92818e-05
2.74383e-05
2.58822e-05
2.74505e-05
4.83594e-05
8.75199e-05
0.000130043
0.00016352
0.000187011
0.000202519
0.000212371
0.000218477
0.000222206
0.000224462
0.0002258
0.000226548
0.00022688
0.000226875
0.000226532
0.000225774
0.000224426
0.000222165
0.000218434
0.000212332
0.000202488
0.000186994
0.000163529
0.000130097
8.76227e-05
4.83752e-05
2.74532e-05
2.58758e-05
2.40397e-05
2.53587e-05
4.38861e-05
7.8765e-05
0.000118726
0.000152778
0.000177353
0.00019402
0.000204938
0.00021198
0.000216509
0.000219416
0.000221247
0.000222322
0.000222818
0.000222814
0.000222309
0.000221223
0.00021938
0.000216462
0.000211926
0.000204882
0.000193965
0.000177304
0.000152752
0.000118766
7.88465e-05
4.38886e-05
2.53578e-05
2.40328e-05
2.19392e-05
2.30349e-05
3.89518e-05
6.86929e-05
0.000105502
0.000139117
0.00016419
0.000181656
0.000193442
0.00020137
0.000206757
0.000210423
0.000212853
0.000214335
0.000215036
0.000215034
0.000214327
0.000212836
0.000210393
0.000206712
0.000201311
0.00019337
0.000181574
0.000164095
0.000139021
0.000105462
6.87234e-05
3.89388e-05
2.30313e-05
2.19322e-05
1.96428e-05
2.05468e-05
3.3805e-05
5.7928e-05
9.00827e-05
0.000121449
0.000146065
0.000163585
0.000175776
0.000184423
0.000190682
0.000195187
0.000198299
0.000200248
0.000201185
0.000201187
0.000200251
0.000198298
0.000195173
0.000190647
0.000184363
0.000175689
0.00016347
0.000145912
0.000121255
8.99372e-05
5.78799e-05
3.37736e-05
2.05444e-05
1.96379e-05
1.71334e-05
1.81886e-05
2.84138e-05
4.65897e-05
7.24152e-05
9.88389e-05
0.000121147
0.000137464
0.000149319
0.000158428
0.000165491
0.000170818
0.000174597
0.000176996
0.000178161
0.000178168
0.000177016
0.000174623
0.00017084
0.000165488
0.000158387
0.000149225
0.000137316
0.000120918
9.85801e-05
7.22002e-05
4.64865e-05
2.83489e-05
1.82189e-05
1.71296e-05
1.44247e-05
1.59907e-05
2.26422e-05
3.54791e-05
5.36684e-05
7.27723e-05
8.89816e-05
0.000101912
0.000112464
0.000121573
0.000128999
0.000134761
0.000138887
0.000141517
0.000142807
0.000142823
0.000141561
0.000138954
0.00013485
0.00012907
0.000121612
0.00011242
0.000101784
8.87662e-05
7.25295e-05
5.34932e-05
3.53741e-05
2.25888e-05
1.60277e-05
1.44245e-05
1.15806e-05
1.35221e-05
1.78336e-05
2.5435e-05
3.54869e-05
4.61098e-05
5.56751e-05
6.41039e-05
7.15987e-05
7.83886e-05
8.41825e-05
8.88147e-05
9.22566e-05
9.45334e-05
9.56776e-05
9.57049e-05
9.46124e-05
9.23776e-05
8.89578e-05
8.4311e-05
7.84712e-05
7.16079e-05
6.40631e-05
5.55857e-05
4.59958e-05
3.53741e-05
2.53653e-05
1.78238e-05
1.35649e-05
1.15849e-05
8.70507e-06
1.03145e-05
1.32186e-05
1.66372e-05
2.17774e-05
2.72157e-05
3.22693e-05
3.67237e-05
4.08009e-05
4.44568e-05
4.75603e-05
5.00305e-05
5.18946e-05
5.3148e-05
5.37834e-05
5.3795e-05
5.31821e-05
5.19482e-05
5.00945e-05
4.76019e-05
4.44495e-05
4.07727e-05
3.66863e-05
3.22263e-05
2.71695e-05
2.17428e-05
1.66118e-05
1.32191e-05
1.03618e-05
8.71264e-06
5.13718e-06
1.63226e-06
7.50291e-06
1.1102e-05
1.46918e-05
1.76976e-05
2.0258e-05
2.26676e-05
2.47691e-05
2.65759e-05
2.80921e-05
2.9303e-05
3.02054e-05
3.08065e-05
3.11078e-05
3.11083e-05
3.08078e-05
3.02066e-05
2.93027e-05
2.80879e-05
2.65676e-05
2.47592e-05
2.26615e-05
2.02779e-05
1.77244e-05
1.47181e-05
1.11238e-05
7.51704e-06
1.63965e-06
5.14432e-06
3.57071e-06
6.10259e-06
8.70292e-06
1.10665e-05
1.34289e-05
1.56625e-05
1.77232e-05
1.94993e-05
2.10398e-05
2.2362e-05
2.34689e-05
2.43687e-05
2.50538e-05
2.55124e-05
2.57417e-05
2.57411e-05
2.55103e-05
2.50504e-05
2.43642e-05
2.34645e-05
2.23569e-05
2.10339e-05
1.94916e-05
1.77168e-05
1.56586e-05
1.34285e-05
1.10699e-05
8.70935e-06
6.10993e-06
3.57528e-06
3.36145e-06
5.71794e-06
8.24125e-06
1.05728e-05
1.29179e-05
1.5136e-05
1.7172e-05
1.89158e-05
2.04418e-05
2.17679e-05
2.28825e-05
2.37754e-05
2.44443e-05
2.48919e-05
2.51169e-05
2.51182e-05
2.48959e-05
2.44507e-05
2.3784e-05
2.2892e-05
2.17786e-05
2.04532e-05
1.89293e-05
1.71833e-05
1.51423e-05
1.29183e-05
1.05676e-05
8.23206e-06
5.70672e-06
3.35395e-06
4.87019e-06
2.49634e-06
1.06606e-05
1.59061e-05
2.09755e-05
2.54987e-05
2.93654e-05
3.23712e-05
3.46818e-05
3.64178e-05
3.77203e-05
3.86911e-05
3.93914e-05
3.98488e-05
4.00762e-05
4.00785e-05
3.98558e-05
3.94029e-05
3.87072e-05
3.77404e-05
3.6441e-05
3.47058e-05
3.23915e-05
2.93656e-05
2.54621e-05
2.09241e-05
1.58577e-05
1.06286e-05
2.46711e-06
4.85799e-06
8.27775e-06
1.2975e-05
1.72641e-05
2.10516e-05
2.40511e-05
2.71412e-05
3.0172e-05
3.30671e-05
3.58605e-05
3.82936e-05
4.03755e-05
4.20683e-05
4.33529e-05
4.42182e-05
4.46563e-05
4.46633e-05
4.42403e-05
4.33925e-05
4.21274e-05
4.04555e-05
3.84205e-05
3.60013e-05
3.31886e-05
3.02032e-05
2.71441e-05
2.40518e-05
2.10534e-05
1.72379e-05
1.28711e-05
8.26321e-06
1.10552e-05
1.8117e-05
2.3242e-05
2.48765e-05
2.87495e-05
3.48382e-05
4.15573e-05
4.78479e-05
5.3282e-05
5.77609e-05
6.14862e-05
6.45367e-05
6.68875e-05
6.84843e-05
6.92801e-05
6.92565e-05
6.84164e-05
6.67842e-05
6.44143e-05
6.1367e-05
5.76836e-05
5.33068e-05
4.78874e-05
4.15901e-05
3.47998e-05
2.87824e-05
2.48917e-05
2.3196e-05
1.80337e-05
1.10451e-05
1.37957e-05
2.2079e-05
2.63478e-05
2.95606e-05
3.84743e-05
5.1073e-05
6.27159e-05
7.22769e-05
8.00905e-05
8.65656e-05
9.18609e-05
9.60926e-05
9.94661e-05
0.000101896
0.000103127
0.000103094
0.000101802
9.93331e-05
9.59371e-05
9.17366e-05
8.65241e-05
8.01575e-05
7.24398e-05
6.29327e-05
5.10875e-05
3.83764e-05
2.95769e-05
2.63348e-05
2.20141e-05
1.3793e-05
1.6425e-05
2.55487e-05
2.85936e-05
3.59924e-05
5.13466e-05
6.96477e-05
8.73219e-05
0.000101937
0.000113567
0.00012253
0.000129418
0.000134663
0.000138554
0.000141177
0.000142486
0.000142457
0.000141099
0.000138452
0.000134572
0.000129385
0.000122596
0.000113757
0.000102257
8.77863e-05
6.9931e-05
5.14334e-05
3.60473e-05
2.86137e-05
2.55105e-05
1.64291e-05
1.89e-05
2.82344e-05
3.10332e-05
4.37364e-05
6.3776e-05
8.76597e-05
0.000110976
0.000129487
0.000143033
0.000152913
0.000160142
0.000165402
0.000169115
0.00017151
0.000172684
0.000172678
0.000171498
0.000169115
0.000165436
0.000160234
0.000153076
0.000143265
0.000129795
0.000111377
8.80425e-05
6.3938e-05
4.37783e-05
3.11436e-05
2.82446e-05
1.89068e-05
2.11821e-05
3.03396e-05
3.42861e-05
5.10718e-05
7.51667e-05
0.000104082
0.00013051
0.000150507
0.00016484
0.000174958
0.000182062
0.000187008
0.000190351
0.00019243
0.000193431
0.000193438
0.000192453
0.0001904
0.000187093
0.000182191
0.000175129
0.000165049
0.000150754
0.000130769
0.000104277
7.52125e-05
5.10418e-05
3.4404e-05
3.03535e-05
2.11914e-05
2.32176e-05
3.20133e-05
3.76419e-05
5.73774e-05
8.51969e-05
0.00011818
0.000145673
0.000165969
0.000180286
0.000190165
0.000196887
0.000201392
0.00020432
0.00020608
0.000206911
0.000206922
0.000206116
0.000204384
0.000201487
0.000197012
0.000190314
0.000180451
0.000166139
0.000145816
0.000118216
8.50881e-05
5.72964e-05
3.77415e-05
3.20276e-05
2.32273e-05
2.5008e-05
3.33805e-05
4.09215e-05
6.33391e-05
9.50507e-05
0.00012985
0.000157342
0.000177255
0.000191083
0.000200438
0.000206637
0.000210655
0.000213173
0.000214636
0.000215311
0.000215323
0.000214672
0.000213233
0.000210739
0.000206739
0.000200552
0.000191197
0.000177356
0.000157404
0.000129829
9.49173e-05
6.32413e-05
4.09891e-05
3.33949e-05
2.50174e-05
2.65345e-05
3.45015e-05
4.39132e-05
6.86386e-05
0.000103646
0.000138995
0.000166137
0.000185401
0.000198549
0.000207271
0.000212907
0.000216447
0.000218589
0.000219792
0.000220333
0.000220343
0.000219821
0.000218636
0.00021651
0.000212978
0.000207343
0.000198612
0.00018544
0.000166134
0.00013892
0.000103487
6.85382e-05
4.39422e-05
3.45159e-05
2.65434e-05
2.77789e-05
3.54058e-05
4.64661e-05
7.30545e-05
0.000110547
0.000145979
0.0001726
0.000191167
0.000203626
0.00021173
0.000216841
0.000219959
0.000221781
0.000222769
0.000223202
0.000223209
0.00022279
0.000221812
0.000219998
0.00021688
0.000211761
0.00020364
0.000191152
0.000172542
0.000145862
0.000110379
7.29614e-05
4.6462e-05
3.54205e-05
2.77873e-05
2.87257e-05
3.60953e-05
4.84214e-05
7.63805e-05
0.000115668
0.000151027
0.00017714
0.000195093
0.00020696
0.000214544
0.000219226
0.000222006
0.000223579
0.000224404
0.000224755
0.000224759
0.000224416
0.000223596
0.000222022
0.000219237
0.000214541
0.000206935
0.000195036
0.000177043
0.000150887
0.000115508
7.63157e-05
4.84217e-05
3.6111e-05
2.87338e-05
2.93632e-05
3.65633e-05
4.97535e-05
7.85876e-05
0.000119034
0.000154302
0.000180033
0.000197537
0.000208977
0.000216191
0.00022057
0.000223116
0.000224521
0.000225237
0.000225533
0.000225535
0.000225241
0.000224526
0.000223116
0.00022056
0.000216163
0.000208924
0.000197453
0.000179913
0.000154152
0.000118883
7.85367e-05
4.97537e-05
3.65789e-05
2.9371e-05
2.96833e-05
3.68001e-05
5.04325e-05
7.96956e-05
0.000120702
0.000155913
0.000181442
0.000198712
0.00020993
0.000216952
0.000221175
0.000223602
0.000224922
0.000225583
0.000225852
0.000225853
0.000225584
0.00022492
0.000223594
0.000221154
0.000216911
0.000209863
0.000198614
0.000181313
0.000155761
0.000120557
7.96502e-05
5.04322e-05
3.68151e-05
2.96911e-05
2.96824e-05
3.67985e-05
5.04323e-05
7.96933e-05
0.0001207
0.000155913
0.000181444
0.000198715
0.000209935
0.000216958
0.000221181
0.000223608
0.000224927
0.000225588
0.000225857
0.000225858
0.000225589
0.000224925
0.000223599
0.000221159
0.000216916
0.000209868
0.000198618
0.000181316
0.000155762
0.000120556
7.96465e-05
5.04315e-05
3.68127e-05
2.96902e-05
2.93604e-05
3.65586e-05
4.97531e-05
7.85809e-05
0.000119029
0.000154302
0.000180039
0.000197549
0.000208993
0.000216208
0.000220587
0.000223133
0.000224536
0.000225251
0.000225547
0.000225548
0.000225255
0.000224539
0.000223131
0.000220574
0.000216177
0.000208938
0.000197464
0.000179922
0.000154157
0.000118882
7.8527e-05
4.97522e-05
3.65717e-05
2.93683e-05
2.87212e-05
3.60874e-05
4.84234e-05
7.63718e-05
0.00011566
0.00015103
0.000177154
0.000195114
0.000206986
0.000214572
0.000219254
0.000222032
0.000223603
0.000224426
0.000224775
0.000224779
0.000224435
0.000223616
0.000222043
0.000219258
0.000214563
0.000206955
0.000195055
0.000177059
0.000150897
0.000115509
7.63062e-05
4.8423e-05
3.6099e-05
2.87293e-05
2.77729e-05
3.53958e-05
4.64922e-05
7.30488e-05
0.000110542
0.000145988
0.000172623
0.000191199
0.000203662
0.000211767
0.000216877
0.000219992
0.00022181
0.000222795
0.000223225
0.000223231
0.000222812
0.000221836
0.000220023
0.000216907
0.000211788
0.000203666
0.000191177
0.000172565
0.000145881
0.000110391
7.29636e-05
4.64954e-05
3.54056e-05
2.7781e-05
2.65273e-05
3.4491e-05
4.39677e-05
6.86374e-05
0.000103643
0.000139012
0.000166172
0.000185445
0.000198596
0.000207317
0.000212948
0.000216483
0.000218618
0.000219816
0.000220354
0.000220363
0.000219842
0.000218659
0.000216535
0.000213006
0.000207373
0.000198642
0.000185471
0.000166163
0.000138946
0.000103508
6.85506e-05
4.39997e-05
3.44993e-05
2.65354e-05
2.5e-05
3.337e-05
4.09884e-05
6.33338e-05
9.5046e-05
0.000129876
0.00015739
0.000177311
0.000191138
0.000200489
0.00020668
0.000210688
0.000213197
0.000214653
0.000215325
0.000215335
0.000214685
0.00021325
0.00021076
0.000206765
0.000200581
0.000191229
0.00017739
0.000157439
0.000129858
9.49387e-05
6.3254e-05
4.10512e-05
3.33774e-05
2.50081e-05
2.32092e-05
3.20036e-05
3.77147e-05
5.73658e-05
8.51839e-05
0.000118214
0.000145734
0.000166036
0.000180347
0.000190215
0.000196924
0.000201416
0.000204332
0.000206083
0.00020691
0.00020692