/*--------------------------------*- C++ -*----------------------------------*\
| =========                 |                                                 |
| \\      /  F ield         | OpenFOAM: The Open Source CFD Toolbox           |
|  \\    /   O peration     | Version:  2312                                  |
|   \\  /    A nd           | Website:  www.openfoam.com                      |
|    \\/     M anipulation  |                                                 |
\*---------------------------------------------------------------------------*/
FoamFile
{
    version     2.0;
    format      ascii;
    arch        "LSB;label=32;scalar=64";
    class       surfaceScalarField;
    location    "1000";
    object      phi;
}
// * * * * * * * * * * * * * * * * * * * * * * * * * * * * * * * * * * * * * //

dimensions      [1 0 -1 0 0 0 0];

oriented        oriented;

internalField   nonuniform List<scalar> 
78300
(
-7.99606e-05
0.000295054
0.0075443
0.00271628
0.00128059
0.00976122
0.00267535
0.00467829
0.015
0.00294773
0.00524665
0.0196059
0.00317464
0.00586138
0.0241819
0.00332149
0.00638817
0.0285093
0.00336441
0.00685781
0.03252
0.00328802
0.00725137
0.0361998
0.00308053
0.00756724
0.0395248
0.00275228
0.0078129
0.0424456
0.00232363
0.00799907
0.0449244
0.00181643
0.00813642
0.0469347
0.00125187
0.00823319
0.0484574
0.000650532
0.00829432
0.0494794
3.1876e-05
0.00832357
0.049992
-0.000585121
0.00832282
0.0499911
-0.00118144
0.00829203
0.0494766
-0.00173725
0.00822903
0.0484528
-0.00223168
0.00813014
0.0469282
-0.00264321
0.00799026
0.0449161
-0.00294996
0.00780127
0.0424357
-0.00313281
0.00755335
0.039514
-0.00318461
0.00723771
0.0361889
-0.00312331
0.00684974
0.0325097
-0.00297326
0.00639313
0.0285012
-0.00276362
0.00588356
0.024177
-0.00253043
0.00528693
0.0196048
-0.00263249
0.00473743
0.015002
0.000100661
0.00133952
0.00976539
0.000310432
0.00754962
0.00325408
0.00434402
0.00971866
0.0054716
0.0040467
0.017906
0.0064466
0.0072737
0.0249176
0.00662567
0.00813354
0.0307197
0.00659958
0.00868089
0.0359595
0.00643878
0.00910484
0.0408062
0.00616578
0.00945726
0.0452609
0.00576916
0.00975642
0.0492966
0.00523872
0.0100001
0.0528913
0.00457784
0.010188
0.0560202
0.00380391
0.0103255
0.0586583
0.00294047
0.0104216
0.0607869
0.00201243
0.0104851
0.0623932
0.00104294
0.0105229
0.0634683
5.41865e-05
0.0105398
0.0640064
-0.00093235
0.0105385
0.0640048
-0.0018951
0.0105187
0.0634634
-0.00281244
0.0104782
0.0623852
-0.00366177
0.0104123
0.0607759
-0.00441978
0.0103146
0.0586444
-0.00506525
0.0101772
0.056004
-0.00558482
0.00999258
0.0528741
-0.00597996
0.00975765
0.0492802
-0.0062656
0.00947515
0.0452476
-0.0064561
0.00914683
0.0407989
-0.0065306
0.0087501
0.0359609
-0.00641331
0.00822532
0.03073
-0.005491
0.00736933
0.0249339
-0.00329799
0.0041116
0.0179246
0.0043086
0.00972554
0.00685143
0.00385265
0.0199065
0.0095326
0.00599095
0.0273014
0.0103182
0.00868991
0.0351254
0.0100107
0.00949241
0.0413862
0.00936387
0.00986083
0.0466965
0.00863616
0.0100945
0.0514143
0.0078803
0.0102823
0.0556836
0.0070903
0.0104515
0.059531
0.00624806
0.0106006
0.0629474
0.00534204
0.0107224
0.0659148
0.00437185
0.0108133
0.0684149
0.0033457
0.0108759
0.0704323
0.00227655
0.0109155
0.0719546
0.00117909
0.0109377
0.0729734
6.8549e-05
0.0109469
0.0734831
-0.00103979
0.0109455
0.0734809
-0.00213102
0.0109338
0.0729669
-0.00319065
0.0109098
0.071944
-0.00420557
0.0108695
0.0704181
-0.0051652
0.0108085
0.0683983
-0.00606476
0.0107226
0.0658974
-0.00690884
0.0106112
0.0629311
-0.00771269
0.010479
0.0595185
-0.00849666
0.0103337
0.0556781
-0.00926602
0.0101736
0.0514188
-0.00996366
0.00996547
0.0467119
-0.0103195
0.00961014
0.0414086
-0.00956131
0.0087919
0.0351464
-0.00687228
0.00603277
0.0273166
0.00379146
0.0199115
0.00698485
0.00433278
0.0279073
0.0101455
0.00681001
0.0368505
0.011061
0.00917863
0.0446336
0.0108435
0.00986841
0.0508076
0.0101448
0.0101607
0.0559864
0.00927881
0.0103054
0.0605313
0.00835925
0.0104006
0.0646091
0.00741698
0.0104844
0.06827
0.00645268
0.0105634
0.071516
0.00545992
0.0106327
0.0743341
0.004434
0.0106869
0.0767088
0.00337581
0.0107245
0.0786259
0.00229062
0.0107476
0.0800735
0.00118695
0.0107595
0.0810427
7.45225e-05
0.0107641
0.0815277
-0.00103621
0.0107632
0.0815255
-0.0021353
0.0107575
0.0810363
-0.00321393
0.0107454
0.0800634
-0.00426559
0.0107245
0.078613
-0.00528756
0.0106924
0.0766946
-0.00628251
0.0106483
0.0743208
-0.00725787
0.0105949
0.0715062
-0.00822237
0.0105375
0.0682667
-0.009175
0.0104792
0.064615
-0.0100824
0.0104091
0.060548
-0.0108238
0.0102824
0.056012
-0.0110742
0.00999214
0.0508345
-0.0101689
0.00927335
0.0446511
-0.00699747
0.0068334
0.0368581
0.00425852
0.0279078
0.00789213
0.00458587
0.0360734
0.0108348
0.00730457
0.0460449
0.0114814
0.00928405
0.0537525
0.011178
0.00981717
0.0596124
0.0104585
0.0100368
0.0645587
0.00955792
0.0101288
0.0689293
0.00858005
0.0101724
0.0728511
0.0075691
0.0102031
0.0763646
0.00654099
0.0102319
0.0794747
0.00549878
0.0102584
0.0821723
0.00444107
0.0102795
0.0844447
0.00336706
0.0102933
0.0862793
0.0022784
0.0103003
0.0876648
0.00117896
0.0103026
0.0885927
7.44634e-05
0.0103028
0.0890572
-0.00102906
0.0103028
0.0890554
-0.00212572
0.0103031
0.0885874
-0.00321117
0.0103031
0.0876566
-0.0042832
0.0103013
0.0862694
-0.00534266
0.0102967
0.0844348
-0.00639275
0.0102897
0.0821645
-0.00743672
0.0102825
0.0794714
-0.00847191
0.0102768
0.0763682
-0.00948075
0.0102699
0.072863
-0.0104149
0.0102463
0.0689491
-0.0111646
0.0101645
0.0645829
-0.011486
0.00993783
0.0596335
-0.0108397
0.00937054
0.053761
-0.0078885
0.00732209
0.0460422
0.00452019
0.0360685
0.00853603
0.00470038
0.0440381
0.0112987
0.00745158
0.054858
0.0117332
0.0091033
0.0623608
0.0113348
0.00950789
0.0679097
0.0105903
0.0096612
0.0726244
0.00968031
0.00971103
0.0768252
0.00868596
0.00971899
0.0806063
0.00764911
0.00971342
0.0839937
0.00659133
0.00970511
0.0869891
0.00552228
0.0096967
0.0895848
0.00444494
0.00968815
0.0917699
0.00335983
0.00967892
0.0935332
0.00226754
0.00966963
0.0948648
0.00116984
0.00966188
0.0957565
6.93632e-05
0.00965774
0.0962029
-0.00103067
0.00965878
0.0962015
-0.00212752
0.0096657
0.0957523
-0.00321945
0.00967827
0.0948586
-0.00430629
0.00969564
0.0935262
-0.00538918
0.00971716
0.0917636
-0.00646912
0.00974266
0.0895811
-0.00754374
0.00977191
0.0869898
-0.00860261
0.00980288
0.084
-0.00962179
0.00982931
0.0806184
-0.0105557
0.00983617
0.0768414
-0.011318
0.0097903
0.0726409
-0.0117239
0.00962537
0.0679203
-0.0112855
0.00918741
0.0623594
-0.00851909
0.00747643
0.054847
0.0046601
0.0440296
0.00902156
0.00467051
0.0516785
0.0115852
0.00732325
0.0631417
0.0118679
0.00868701
0.0703936
0.0114062
0.0089924
0.0756699
0.0106473
0.00909166
0.0801785
0.00973859
0.00910792
0.0842206
0.00874521
0.00908894
0.0878706
0.0077034
0.0090569
0.0911433
0.00663508
0.00902104
0.0940366
0.00555263
0.00898546
0.0965422
0.0044623
0.00895221
0.0986503
0.00336667
0.00892269
0.100351
0.00226699
0.00889837
0.101634
0.00116432
0.00888113
0.102494
6.00333e-05
0.0088729
0.102924
-0.00104435
0.00887516
0.102923
-0.00214762
0.0088887
0.102491
-0.00324911
0.00891336
0.10163
-0.00434886
0.00894841
0.100346
-0.00544663
0.00899259
0.0986464
-0.00654041
0.00904435
0.0965406
-0.00762379
0.00910106
0.0940384
-0.00868303
0.00915808
0.091149
-0.00969393
0.00920788
0.0878795
-0.0106171
0.00923759
0.0842306
-0.0113847
0.00922188
0.080186
-0.0118476
0.00911016
0.0756706
-0.011561
0.00877596
0.0703848
-0.00899977
0.00736523
0.0631271
0.0046629
0.0516676
0.00938249
0.004493
0.0588524
0.0117666
0.00695551
0.0707898
0.011934
0.00807018
0.077788
0.0114316
0.00829707
0.0828269
0.0106674
0.00835476
0.0871546
0.00976674
0.0083454
0.0910524
0.00878279
0.00830695
0.0945808
0.00774659
0.00825626
0.0977478
0.00667834
0.00820097
0.100548
0.00559089
0.00814576
0.102973
0.00449208
0.00809396
0.105013
0.00338626
0.00804854
0.106658
0.00227587
0.00801204
0.107899
0.00116245
0.00798699
0.10873
4.73767e-05
0.00797545
0.109147
-0.00106816
0.00797903
0.109146
-0.00218308
0.00799843
0.108728
-0.00329652
0.00803343
0.107896
-0.0044074
0.00808281
0.106654
-0.00551375
0.00814456
0.10501
-0.00661111
0.00821553
0.102972
-0.007691
0.00829134
0.10055
-0.00873917
0.00836599
0.0977513
-0.0097337
0.00843191
0.0945853
-0.0106417
0.00847865
0.0910561
-0.0114085
0.00848747
0.0871548
-0.011909
0.00841905
0.0828208
-0.0117395
0.00816964
0.0777754
-0.00936193
0.00701913
0.0707748
0.00451651
0.0588418
0.00966005
0.00416758
0.0654175
0.0118854
0.00637917
0.0777098
0.0119623
0.00727839
0.0844706
0.0114315
0.00744256
0.0893037
0.0106669
0.00746909
0.0934736
0.0097769
0.00744143
0.0972421
0.00880627
0.00739018
0.10066
0.00778119
0.00732769
0.103731
0.00671906
0.00726037
0.106448
0.00563199
0.00719278
0.108801
0.00452812
0.0071291
0.110781
0.00341299
0.00707316
0.112377
0.00229026
0.00702851
0.113581
0.00116268
0.00699817
0.114388
3.24461e-05
0.0069846
0.114791
-0.00109837
0.00698942
0.114791
-0.0022278
0.00701328
0.114386
-0.00335377
0.0070557
0.113579
-0.00447372
0.00711499
0.112374
-0.00558386
0.00718819
0.110778
-0.00667828
0.00727113
0.1088
-0.00774799
0.00735838
0.106448
-0.00877988
0.00744351
0.103731
-0.0097554
0.0075195
0.10066
-0.0106475
0.00757805
0.0972408
-0.0114112
0.00760576
0.0934687
-0.0119391
0.00757142
0.089294
-0.0118615
0.00739073
0.084457
-0.00964398
0.00646405
0.0776963
0.004216
0.0654087
0.0098708
0.00370649
0.0712558
0.0119617
0.00562046
0.083815
0.0119691
0.00633203
0.0903644
0.0114178
0.00644675
0.095023
0.0106547
0.00645106
0.0990568
0.00977576
0.00641199
0.102712
0.00881964
0.00635372
0.106031
0.00780788
0.00628567
0.109017
0.00675494
0.00621298
0.111661
0.00567127
0.00613997
0.113951
0.00456477
0.00607097
0.115878
0.00344153
0.00601031
0.117432
0.00230637
0.00596199
0.118605
0.00116341
0.00592944
0.11939
1.63419e-05
0.00591528
0.119783
-0.00113128
0.00592119
0.119783
-0.00227591
0.0059477
0.119389
-0.0034138
0.00599406
0.118603
-0.00454069
0.00605818
0.11743
-0.00565143
0.00613658
0.115876
-0.0067394
0.00622451
0.113949
-0.00779601
0.0063162
0.111659
-0.00881012
0.00640545
0.109015
-0.00976676
0.00648607
0.106029
-0.0106442
0.00655162
0.102707
-0.0114042
0.00659202
0.0990495
-0.0119522
0.00658296
0.0950123
-0.0119445
0.00645651
0.0903519
-0.00986016
0.00572259
0.0838044
0.0037723
0.0712491
0.0100277
0.00312683
0.0762708
0.0120085
0.0047061
0.089028
0.0119632
0.0052516
0.0953972
0.0113974
0.00532754
0.0999116
0.0106373
0.00531701
0.103832
0.00976914
0.00527285
0.10739
0.0088269
0.00521314
0.110625
0.00782839
0.00514518
0.113537
0.00678524
0.00507318
0.116118
0.0057062
0.00500103
0.118355
0.00459845
0.00493289
0.120238
0.0034683
0.00487305
0.121756
0.00232154
0.00482557
0.122903
0.00116367
0.00479388
0.12367
4.4366e-08
0.00478063
0.124055
-0.00116398
0.00478737
0.124054
-0.00232301
0.00481456
0.123669
-0.0034715
0.00486128
0.122901
-0.00460369
0.00492526
0.121754
-0.00571335
0.00500288
0.120235
-0.00679366
0.00508938
0.118352
-0.00783698
0.0051793
0.116115
-0.0088342
0.00526693
0.113534
-0.00977364
0.00534703
0.110621
-0.0106377
0.00541438
0.107384
-0.0113931
0.00546136
0.103823
-0.0119547
0.00546958
0.0999016
-0.0119986
0.00538508
0.0953869
-0.010022
0.00481988
0.0890205
0.00320312
0.076266
0.0101413
0.00244931
0.0803809
0.0120356
0.00366417
0.0932817
0.0119521
0.00405928
0.0995049
0.0113768
0.00410484
0.103905
0.0106198
0.00408588
0.107733
0.00976147
0.00404174
0.111212
0.00883149
0.00398555
0.114379
0.00784475
0.00392272
0.117231
0.00681051
0.00385672
0.11976
0.00573592
0.00379093
0.121954
0.00462741
0.00372907
0.1238
0.00349136
0.00367501
0.12529
0.0023343
0.0036324
0.126415
0.00116298
0.0036044
0.127168
-1.56172e-05
0.00359336
0.127546
-0.0011944
0.00360069
0.127545
-0.00236617
0.00362667
0.127167
-0.00352376
0.00367041
0.126413
-0.00466007
0.00372973
0.125288
-0.00576816
0.00380129
0.123798
-0.00684127
0.00388081
0.121951
-0.00787267
0.00396345
0.119757
-0.00885516
0.00404436
0.117227
-0.00977965
0.00411909
0.114373
-0.0106317
0.00418343
0.111206
-0.0113822
0.00423156
0.107725
-0.0119519
0.00424994
0.103896
-0.0120324
0.00419769
0.0994969
-0.0101395
0.00378398
0.093277
0.0025306
0.0803778
0.0102201
0.00169666
0.0835209
0.0120505
0.00252434
0.0965215
0.0119408
0.00277992
0.102634
0.0113599
0.00280134
0.106948
0.0106064
0.00277885
0.110707
0.00975616
0.00273886
0.114127
0.00883608
0.00269016
0.117241
0.0078587
0.00263664
0.120048
0.00683147
0.00258105
0.122537
0.00576027
0.00252618
0.124697
0.00465091
0.00247505
0.126517
0.00350975
0.00243082
0.127985
0.00234392
0.00239644
0.129094
0.00116122
0.00237443
0.129836
-3.00433e-05
0.00236667
0.130208
-0.00122123
0.00237428
0.130208
-0.00240365
0.00239745
0.129835
-0.00356876
0.00243538
0.129092
-0.00470844
0.00248629
0.127983
-0.00581525
0.00254743
0.126514
-0.00688253
0.00261535
0.124694
-0.00790437
0.00268618
0.122533
-0.00887501
0.00275601
0.120043
-0.0097873
0.00282122
0.117235
-0.0106292
0.00287841
0.11412
-0.0113745
0.00292325
0.1107
-0.011948
0.00294627
0.106941
-0.0120527
0.00291919
0.102628
-0.0102211
0.00264549
0.0965189
0.00177899
0.0835189
0.0102701
0.000892674
0.0856415
0.0120588
0.00131772
0.0987052
0.0119332
0.00144055
0.104743
0.0113499
0.00144203
0.109
0.0105996
0.00141937
0.112713
0.00975532
0.00138645
0.116093
0.00884221
0.00134819
0.119171
0.00787122
0.00130709
0.121947
0.00684855
0.00126522
0.12441
0.0057792
0.00122465
0.126548
0.00466854
0.00118758
0.128349
0.00352298
0.00115617
0.129803
0.00235005
0.00113245
0.130901
0.00115835
0.00111809
0.131636
-4.28093e-05
0.00111437
0.132005
-0.00124365
0.00112199
0.132004
-0.00243436
0.00114107
0.131635
-0.0036054
0.00117106
0.130899
-0.00474793
0.00121072
0.129801
-0.00585415
0.00125818
0.128347
-0.00691751
0.00131104
0.126545
-0.00793263
0.00136659
0.124407
-0.00889472
0.00142198
0.121943
-0.00979797
0.00147449
0.119166
-0.010632
0.00152147
0.116087
-0.0113722
0.00155981
0.112707
-0.0119464
0.00158377
0.108994
-0.012065
0.0015773
0.104739
-0.0102728
0.00143671
0.0987039
0.000973538
0.0856402
0.0102949
6.19818e-05
0.0867101
0.0120639
7.6425e-05
0.0998043
0.0119317
6.97476e-05
0.105805
0.0113482
5.34565e-05
0.110033
0.0106004
3.24459e-05
0.113723
0.00975972
8.33094e-06
0.117082
0.00885036
-1.77136e-05
0.120143
0.00788247
-4.44412e-05
0.122904
0.0068616
-7.05378e-05
0.125354
0.00579233
-9.47083e-05
0.12748
0.00467984
-0.000115728
0.129272
0.00353057
-0.000132511
0.130718
0.00235239
-0.000144141
0.131811
0.00115433
-0.000149876
0.132542
-5.36451e-05
-0.000149198
0.132909
-0.00126111
-0.000141799
0.132909
-0.00245756
-0.000127638
0.132542
-0.00363289
-0.000106969
0.131809
-0.00477782
-8.03453e-05
0.130716
-0.00588432
-4.86442e-05
0.12927
-0.00694586
-1.30349e-05
0.127477
-0.00795733
2.5028e-05
0.12535
-0.00891445
6.38746e-05
0.1229
-0.0098121
0.000101673
0.120139
-0.0106407
0.000136549
0.117077
-0.0113767
0.000166586
0.113717
-0.0119493
0.000189566
0.110028
-0.0120728
0.000201515
0.105801
-0.0102987
0.000190988
0.0998035
0.000140119
0.086709
0.0102964
-0.000770305
0.0867102
0.0120674
-0.00116691
0.0998043
0.0119372
-0.00130311
0.105805
0.0113554
-0.00133699
0.110033
0.010609
-0.001356
0.113723
0.00976926
-0.00137084
0.117083
0.00886023
-0.00138408
0.120144
0.00789199
-0.00139577
0.122904
0.00687008
-0.0014054
0.125354
0.00579907
-0.00141248
0.127481
0.00468421
-0.00141682
0.129272
0.00353208
-0.00141848
0.130719
0.00235063
-0.00141764
0.131811
0.0011491
-0.00141457
0.132543
-6.23894e-05
-0.00140947
0.132909
-0.00127322
-0.00140248
0.132909
-0.00247269
-0.00139362
0.132542
-0.00365054
-0.0013828
0.13181
-0.00479736
-0.00136988
0.130717
-0.00590502
-0.0013547
0.12927
-0.00696692
-0.00133718
0.127478
-0.00797796
-0.00131743
0.125351
-0.00893384
-0.00129594
0.1229
-0.00982954
-0.00127356
0.120139
-0.0106556
-0.00125135
0.117078
-0.0113885
-0.00123002
0.113718
-0.0119579
-0.00120821
0.110028
-0.012078
-0.0011778
0.105801
-0.0103007
-0.00105784
0.0998034
-0.000695234
0.086709
0.0102744
-0.00157893
0.0856418
0.012069
-0.00237944
0.0987052
0.0119493
-0.00264848
0.104743
0.0113711
-0.00270174
0.109
0.0106249
-0.00271993
0.112713
0.00978325
-0.00272629
0.116093
0.00887104
-0.00272738
0.119172
0.00789898
-0.00272468
0.121948
0.00687318
-0.00271851
0.124411
0.00579869
-0.00270927
0.126549
0.00468106
-0.00269774
0.12835
0.003527
-0.00268506
0.129803
0.00234447
-0.00267249
0.130901
0.00114253
-0.00266119
0.131637
-6.89555e-05
-0.00265205
0.132005
-0.00127968
-0.0026456
0.132005
-0.00247929
-0.00264191
0.131636
-0.00365777
-0.00264061
0.1309
-0.00480589
-0.00264092
0.129802
-0.00591553
-0.0026417
0.128348
-0.00697998
-0.00264167
0.126546
-0.00799379
-0.00263967
0.124408
-0.00895226
-0.00263496
0.121944
-0.00984978
-0.00262739
0.119168
-0.0106762
-0.00261713
0.116088
-0.0114076
-0.00260349
0.112708
-0.011972
-0.00258132
0.108995
-0.0120805
-0.00253018
0.104739
-0.0102788
-0.00227589
0.0987036
-0.00150662
0.0856402
0.010227
-0.00233887
0.0835213
0.0120668
-0.00352863
0.0965214
0.0119664
-0.00393734
0.102634
0.0113937
-0.00401384
0.106948
0.0106466
-0.00403395
0.110708
0.00980044
-0.00403392
0.114127
0.00888162
-0.00402472
0.117241
0.00790235
-0.00400957
0.120048
0.00686996
-0.00398968
0.122538
0.00579038
-0.00396628
0.124698
0.00466975
-0.0039411
0.126517
0.00351493
-0.00391619
0.127986
0.00233367
-0.00389368
0.129094
0.00113454
-0.00387549
0.129837
-7.32807e-05
-0.00386306
0.130209
-0.00128032
-0.0038572
0.130209
-0.00247702
-0.00385808
0.129836
-0.00365408
-0.00386511
0.129093
-0.00480276
-0.00387699
0.127984
-0.0059151
-0.00389184
0.126516
-0.00698418
-0.00390733
0.124696
-0.00800398
-0.00392113
0.122535
-0.00896884
-0.00393133
0.120045
-0.00987193
-0.00393674
0.117238
-0.0107018
-0.00393646
0.114123
-0.0114326
-0.00392811
0.110702
-0.0119903
-0.00390234
0.106942
-0.0120785
-0.00382591
0.102629
-0.0102311
-0.00342978
0.0965186
-0.00226834
0.0835189
0.0101501
-0.00302559
0.0803814
0.0120568
-0.00458258
0.0932813
0.0119854
-0.00514192
0.099505
0.0114208
-0.00524767
0.103905
0.0106721
-0.00527407
0.107734
0.00981886
-0.00527102
0.111213
0.0088902
-0.00525461
0.11438
0.00790061
-0.00523014
0.117232
0.00685922
-0.00519986
0.119761
0.00577334
-0.00516585
0.121954
0.00464978
-0.00513055
0.123801
0.00349557
-0.00509674
0.125291
0.0023181
-0.00506713
0.126416
0.00112511
-0.00504409
0.127169
-7.53648e-05
-0.00502941
0.127547
-0.00127507
-0.00502416
0.127547
-0.00246573
-0.00502852
0.127169
-0.00363916
-0.00504185
0.126415
-0.00478741
-0.00506259
0.12529
-0.00590291
-0.00508832
0.1238
-0.00697849
-0.00511601
0.121953
-0.00800728
-0.00514239
0.119759
-0.00898219
-0.00516448
0.11723
-0.00989452
-0.00517995
0.114377
-0.0107305
-0.00518662
0.111209
-0.0114617
-0.00517997
0.107728
-0.0120101
-0.0051456
0.103898
-0.0120681
-0.00503696
0.0994982
-0.0101536
-0.004487
0.0932768
-0.00295517
0.0803779
0.0100377
-0.00361554
0.0762711
0.0120331
-0.00551059
0.089027
0.0120022
-0.0062365
0.095397
0.0114489
-0.00637977
0.0999121
0.0106982
-0.00641845
0.103832
0.00983558
-0.00641684
0.107391
0.0088943
-0.00639741
0.110626
0.0078918
-0.00636784
0.113539
0.00683967
-0.0063317
0.116119
0.00574679
-0.00629178
0.118356
0.0046209
-0.00625114
0.120238
0.00346905
-0.00621284
0.121757
0.002298
-0.00617981
0.122903
0.00111438
-0.00615454
0.123671
-7.5186e-05
-0.00613897
0.124055
-0.00126407
-0.00613422
0.124055
-0.00244558
-0.00614062
0.12367
-0.00361298
-0.00615754
0.122902
-0.00475947
-0.00618339
0.121756
-0.00587807
-0.00621564
0.120238
-0.00696147
-0.006251
0.118355
-0.0080018
-0.00628557
0.116118
-0.0089901
-0.00631553
0.113538
-0.00991505
-0.00633729
0.110624
-0.0107597
-0.00634707
0.107387
-0.0114919
-0.00633757
0.103827
-0.0120273
-0.00628815
0.0999046
-0.0120435
-0.00613793
0.0953887
-0.0100399
-0.0054166
0.0890204
-0.00354259
0.0762664
0.00988121
-0.00408698
0.0712558
0.0119881
-0.00628361
0.0838134
0.0120112
-0.00719806
0.0903638
0.0114735
-0.00738951
0.0950233
0.0107204
-0.00744749
0.0990579
0.00984675
-0.00745312
0.102713
0.00889078
-0.00743564
0.106033
0.00787375
-0.00740605
0.109018
0.00681009
-0.00736949
0.111662
0.00571059
-0.00732952
0.113952
0.00458368
-0.00728928
0.115879
0.00343628
-0.00725177
0.117432
0.00227425
-0.00721962
0.118605
0.00110288
-0.00719514
0.11939
-7.28025e-05
-0.00718016
0.119784
-0.00124788
-0.00717581
0.119784
-0.00241738
-0.00718255
0.11939
-0.00357627
-0.00719982
0.118604
-0.00471914
-0.00722632
0.117432
-0.00583994
-0.00725978
0.115878
-0.00693149
-0.00729711
0.113952
-0.00798497
-0.00733442
0.111662
-0.0089893
-0.00736733
0.109019
-0.00992989
-0.00739108
0.106033
-0.0107857
-0.00739965
0.102712
-0.0115194
-0.00738195
0.0990538
-0.0120375
-0.00731028
0.0950161
-0.0119976
-0.00710673
0.0903543
-0.00988155
-0.00619004
0.0838046
-0.00400819
0.0712496
0.00966979
-0.00442163
0.065417
0.0119117
-0.00687426
0.0777075
0.0120054
-0.00800564
0.0844696
0.0114887
-0.0082584
0.0893041
0.0107336
-0.00834423
0.0934751
0.00984795
-0.00836353
0.0972441
0.0088762
-0.00835338
0.100662
0.0078444
-0.0083296
0.103732
0.00677011
-0.00829907
0.106449
0.00566576
-0.00826576
0.108802
0.00454015
-0.00823247
0.110781
0.0033996
-0.00820146
0.112376
0.00224881
-0.00817472
0.113581
0.00109166
-0.0081541
0.114387
-6.83618e-05
-0.00814118
0.114791
-0.00122777
-0.00813715
0.114791
-0.00238323
-0.00814244
0.114386
-0.00353125
-0.00815676
0.11358
-0.00466807
-0.00817909
0.112376
-0.00578895
-0.00820777
0.110781
-0.00688734
-0.00824047
0.108803
-0.00795393
-0.00827399
0.106451
-0.00897566
-0.008304
0.103736
-0.00993433
-0.00832484
0.100665
-0.0108035
-0.00832796
0.0972456
-0.0115391
-0.0082967
0.0934736
-0.0120347
-0.00819461
0.0892983
-0.0119216
-0.00792403
0.08446
-0.00966856
-0.00678134
0.077697
-0.00433408
0.0654095
0.00939073
-0.00460648
0.0588515
0.011792
-0.00725627
0.070787
0.0119765
-0.0086385
0.0777869
0.0114875
-0.00896806
0.0828278
0.0107316
-0.00909168
0.0871569
0.0098336
-0.00913158
0.0910552
0.00884684
-0.00913514
0.0945834
0.00780245
-0.00912392
0.0977497
0.00672089
-0.00910681
0.100549
0.00561545
-0.00908758
0.102974
0.00449456
-0.00906808
0.105013
0.00336332
-0.00904924
0.106657
0.00222507
-0.00903208
0.107898
0.0010824
-0.00901797
0.108729
-6.2141e-05
-0.00900842
0.109146
-0.00120604
-0.0090046
0.109146
-0.00234688
-0.00900697
0.108728
-0.0034824
-0.00901537
0.107897
-0.00461035
-0.00902895
0.106656
-0.00572767
-0.00904677
0.105012
-0.0068292
-0.00906767
0.102975
-0.00790614
-0.00908984
0.100553
-0.00894419
-0.00910998
0.097755
-0.00992176
-0.0091221
0.0945897
-0.0108064
-0.00911497
0.0910609
-0.0115444
-0.00906488
0.0871597
-0.0120115
-0.00892385
0.0828254
-0.0118047
-0.00857093
0.0777787
-0.00938924
-0.00716651
0.0707759
-0.004509
0.0588431
0.00902829
-0.00464189
0.0516773
0.0116093
-0.00739888
0.0631387
0.0119087
-0.00907069
0.0703928
0.0114586
-0.00949716
0.0756718
0.0107057
-0.00967057
0.0801819
0.00979748
-0.00973875
0.0842242
0.00879933
-0.00976336
0.0878735
0.00774797
-0.00977268
0.0911451
0.00666565
-0.00977741
0.0940371
0.00556525
-0.00978029
0.0965416
0.00445351
-0.0097812
0.0986489
0.00333367
-0.00977938
0.100349
0.00220765
-0.00977498
0.101632
0.00107741
-0.00976928
0.102492
-5.46706e-05
-0.00976393
0.102923
-0.00118593
-0.00976027
0.102922
-0.00231386
-0.00975879
0.10249
-0.00343661
-0.0097591
0.10163
-0.00455289
-0.00976035
0.100347
-0.00566148
-0.00976186
0.0986477
-0.00675958
-0.0097636
0.0965426
-0.00784022
-0.00976599
0.094041
-0.00888971
-0.00976769
0.0911522
-0.00988408
-0.00976381
0.0878833
-0.0107844
-0.00974065
0.0842349
-0.0115235
-0.00966643
0.0801906
-0.0119528
-0.009477
0.0756751
-0.0116286
-0.00902321
0.0703881
-0.0090283
-0.00731803
0.0631283
-0.00453615
0.051669
0.00854246
-0.00453335
0.0440376
0.011322
-0.00726609
0.0548554
0.0117713
-0.00926634
0.0623609
0.0113819
-0.00981875
0.067913
0.0106405
-0.0100537
0.072629
0.00972819
-0.0101585
0.0768294
0.00872714
-0.0102129
0.0806092
0.00767966
-0.0102529
0.0839949
0.00660775
-0.0102896
0.0869887
0.00552156
-0.0103232
0.0895831
0.00442442
-0.0103502
0.0917674
0.00331731
-0.0103688
0.0935303
0.00220137
-0.0103789
0.0948617
0.00107887
-0.0103824
0.0957537
-4.65823e-05
-0.0103816
0.0962005
-0.00117091
-0.0103781
0.0961996
-0.00229022
-0.0103724
0.095751
-0.00340168
-0.0103637
0.0948579
-0.00450396
-0.0103505
0.0935262
-0.00559719
-0.0103316
0.0917642
-0.00668137
-0.0103076
0.0895823
-0.00775367
-0.0102806
0.0869915
-0.00880344
-0.010253
0.0840023
-0.00980697
-0.0102229
0.0806211
-0.0107191
-0.0101759
0.0768447
-0.011454
-0.0100717
0.0726445
-0.0118274
-0.00982542
0.0679239
-0.0113523
-0.00924565
0.0623619
-0.0085481
-0.00720253
0.054848
-0.00442726
0.0440317
0.00789954
-0.00428819
0.0360739
0.0108569
-0.00678621
0.0460448
0.0115162
-0.00917518
0.0537541
0.0112182
-0.00987996
0.059617
0.0104982
-0.0101823
0.0645639
0.00959274
-0.0103342
0.0689333
0.00860639
-0.0104347
0.0728531
0.00758414
-0.0105228
0.0763645
0.00654244
-0.0106056
0.0794727
0.00548465
-0.0106786
0.082169
0.00440966
-0.0107363
0.0844407
0.00331678
-0.0107768
0.086275
0.00220787
-0.0108018
0.0876606
0.00108741
-0.0108145
0.0885889
-3.8464e-05
-0.0108182
0.0890539
-0.00116281
-0.010815
0.0890526
-0.00227891
-0.0108052
0.0885853
-0.00338144
-0.0107874
0.0876551
-0.00446725
-0.0107591
0.0862685
-0.00553612
-0.0107176
0.0844345
-0.00659035
-0.0106623
0.0821648
-0.00763252
-0.0105956
0.0794722
-0.00865949
-0.010523
0.0763694
-0.00965394
-0.010448
0.0728645
-0.0105679
-0.0103607
0.068951
-0.0112919
-0.0102173
0.064585
-0.0115829
-0.0099122
0.0596356
-0.010902
-0.00918459
0.0537625
-0.00791597
-0.00675052
0.046044
-0.00419552
0.0360709
0.00699539
-0.00382041
0.0279091
0.0101679
-0.00598186
0.0368533
0.0110922
-0.00869806
0.0446365
0.0108754
-0.00950959
0.0508125
0.0101723
-0.00988255
0.0559908
0.00929859
-0.010118
0.0605337
0.00836939
-0.0103065
0.0646089
0.00741588
-0.0104762
0.0682676
0.00643945
-0.0106267
0.071512
0.00543362
-0.0107502
0.074329
0.0043938
-0.0108432
0.0767032
0.00332055
-0.0109076
0.0786203
0.00221938
-0.0109484
0.0800682
0.00109885
-0.0109709
0.0810379
-3.06499e-05
-0.0109796
0.0815234
-0.00115813
-0.0109769
0.0815219
-0.00227305
-0.0109627
0.0810333
-0.00336567
-0.0109354
0.080061
-0.00442885
-0.0108908
0.0786112
-0.00545895
-0.0108245
0.0766934
-0.00645777
-0.0107321
0.0743202
-0.00743178
-0.0106131
0.071506
-0.00838918
-0.0104717
0.0682667
-0.00932891
-0.0103156
0.0646152
-0.0102179
-0.0101439
0.0605484
-0.0109363
-0.00992377
0.0560123
-0.011159
-0.00955822
0.0508348
-0.0102226
-0.00873428
0.0446511
-0.00702412
-0.00597903
0.0368602
-0.00375773
0.0279104
0.00686028
-0.00432328
0.0199092
0.00955497
-0.00405531
0.0273055
0.0103432
-0.00728819
0.035129
0.0100309
-0.00814906
0.0413894
0.00937558
-0.00869572
0.0466981
0.00863867
-0.00911807
0.0514132
0.00787299
-0.00946839
0.0556803
0.00707345
-0.00976676
0.0595261
0.006222
-0.0100112
0.0629416
0.00530676
-0.0102003
0.0659085
0.00432685
-0.0103392
0.0684085
0.00329015
-0.0104364
0.070426
0.00220954
-0.0105007
0.0719488
0.00110005
-0.0105388
0.0729682
-2.28319e-05
-0.0105555
0.0734784
-0.00114341
-0.0105534
0.0734767
-0.00224609
-0.0105325
0.0729633
-0.00331608
-0.0104904
0.0719409
-0.00433956
-0.0104225
0.0704156
-0.00530536
-0.0103226
0.0683965
-0.00620798
-0.0101823
0.065896
-0.007051
-0.00999443
0.06293
-0.00784892
-0.00975527
0.0595175
-0.00862176
-0.00946715
0.0556771
-0.00937546
-0.00913186
0.0514179
-0.0100533
-0.00872735
0.046711
-0.0103856
-0.00819589
0.0414076
-0.00960233
-0.00733612
0.0351457
-0.00688857
-0.00408372
0.0273177
-0.00429323
0.0199135
0.00327239
-0.000294875
0.00972091
0.00548689
-0.00129051
0.0179104
0.00645837
-0.00469259
0.024921
0.00662666
-0.00525286
0.0307212
0.00659032
-0.00586486
0.0359584
0.00642169
-0.00638998
0.0408026
0.00614212
-0.00685746
0.045256
0.00574054
-0.00725123
0.0492911
0.00520578
-0.00756824
0.0528856
0.00454066
-0.0078154
0.0560147
0.00376163
-0.00800258
0.0586532
0.00289252
-0.00814081
0.0607822
0.00195804
-0.00823802
0.0623888
0.000981619
-0.00829935
0.0634643
-1.42817e-05
-0.00832854
0.0640028
-0.00100779
-0.00832758
0.0640016
-0.00197715
-0.00829639
0.0634606
-0.00290027
-0.00823293
0.0623827
-0.00375437
-0.00813345
0.0607737
-0.00451591
-0.00799282
0.0586426
-0.00516284
-0.00780334
0.0560024
-0.0056814
-0.00755484
0.0528727
-0.00607201
-0.00723846
0.0492788
-0.00634934
-0.00684868
0.0452462
-0.00652808
-0.00638902
0.040798
-0.0065873
-0.00587572
0.0359605
-0.00645158
-0.00527587
0.0307299
-0.00550472
-0.00472886
0.0249339
-0.00330584
-0.00131765
0.0179247
-0.000303765
0.0097264
-8.11006e-05
0.00754561
0.00270426
0.00976218
0.00264867
0.0150004
0.00291513
0.0196056
0.00313974
0.0241807
0.00328688
0.0285072
0.00333307
0.0325171
0.00326004
0.0361966
0.00305466
0.0395217
0.00272665
0.0424428
0.00229684
0.044922
0.00178736
0.0469326
0.00121985
0.0484555
0.000615128
0.0494777
-7.0736e-06
0.0499906
-0.000627608
0.0499899
-0.00122725
0.0494756
-0.00178614
0.048452
-0.0022833
0.0469277
-0.00269702
0.0449157
-0.00300555
0.0424354
-0.00318958
0.0395137
-0.00324189
0.0361887
-0.00317985
0.03251
-0.00302638
0.0285018
-0.00280972
0.0241778
-0.00256624
0.0196056
-0.00266033
0.0150026
9.43297e-05
0.00976574
0.00754996
0.000879346
0.000306039
0.00635891
0.00153902
0.00057182
0.00852973
0.00165831
0.00151003
0.0133707
0.00181066
0.00192403
0.0175296
0.0018753
0.00250239
0.0216149
0.00187313
0.00305688
0.0254546
0.00181146
0.00357014
0.0290115
0.00170253
0.00402917
0.0322796
0.00155358
0.00443341
0.0352403
0.00136901
0.00478452
0.0378456
0.00115075
0.00508325
0.0400594
0.000900048
0.00532909
0.0418563
0.000620148
0.00551934
0.043218
0.00031726
0.00564994
0.0441323
8.64634e-08
0.00571753
0.0445917
-0.000321299
0.00572032
0.0445922
-0.000637138
0.00565865
0.0441338
-0.000939549
0.00553486
0.0432204
-0.00122361
0.00535289
0.0418594
-0.00148739
0.0051169
0.040063
-0.00172999
0.00482882
0.0378495
-0.00194762
0.00448741
0.0352442
-0.00212961
0.00408775
0.0322832
-0.00225404
0.00362012
0.029014
-0.00228875
0.00308018
0.0254557
-0.00220699
0.0024806
0.0216146
-0.00197187
0.00184117
0.0175285
-0.00171695
0.00137735
0.0133697
-0.000920926
0.000441128
0.00852824
0.000272015
0.00635668
0.000770782
0.000863712
0.0083902
0.00214095