/*--------------------------------*- C++ -*----------------------------------*\
| =========                 |                                                 |
| \\      /  F ield         | OpenFOAM: The Open Source CFD Toolbox           |
|  \\    /   O peration     | Version:  2312                                  |
|   \\  /    A nd           | Website:  www.openfoam.com                      |
|    \\/     M anipulation  |                                                 |
\*---------------------------------------------------------------------------*/
FoamFile
{
    version     2.0;
    format      ascii;
    arch        "LSB;label=32;scalar=64";
    class       volScalarField;
    location    "1000";
    object      T;
}
// * * * * * * * * * * * * * * * * * * * * * * * * * * * * * * * * * * * * * //

dimensions      [0 0 0 1 0 0 0];

internalField   nonuniform List<scalar> 
27000
(
426.279
355.818
347.241
343.118
342.446
342.555
342.786
343.036
343.281
343.492
343.661
343.793
343.891
343.957
343.99
343.99
343.957
343.891
343.793
343.661
343.491
343.278
343.029
342.773
342.53
342.402
343.044
347.123
355.648
425.964
335.883
354.525
348.464
346.843
346.569
346.785
347.048
347.266
347.437
347.569
347.669
347.742
347.793
347.826
347.842
347.842
347.826
347.792
347.74
347.665
347.563
347.424
347.243
347.01
346.725
346.482
346.727
348.33
354.407
335.913
342.403
345.678
348.219
347.993
347.855
347.9
348.013
348.123
348.21
348.277
348.327
348.362
348.386
348.402
348.409
348.409
348.4
348.384
348.357
348.317
348.262
348.186
348.085
347.96
347.828
347.768
347.902
348.146
345.659
342.425
342.342
346.199
347.797
348.107
348.125
348.147
348.204
348.273
348.336
348.388
348.428
348.457
348.477
348.489
348.495
348.494
348.487
348.472
348.448
348.414
348.367
348.305
348.231
348.15
348.084
348.06
348.052
347.766
346.202
342.363
342.767
346.741
347.95
348.179
348.226
348.245
348.276
348.32
348.366
348.408
348.442
348.469
348.488
348.5
348.505
348.504
348.496
348.481
348.458
348.426
348.384
348.335
348.281
348.231
348.199
348.185
348.15
347.941
346.754
342.788
343.194
347.12
348.097
348.266
348.299
348.309
348.324
348.35
348.381
348.413
348.442
348.465
348.483
348.494
348.499
348.498
348.49
348.475
348.454
348.425
348.391
348.353
348.318
348.291
348.278
348.276
348.255
348.102
347.139
343.216
343.594
347.384
348.197
348.333
348.355
348.358
348.363
348.376
348.396
348.419
348.441
348.461
348.476
348.486
348.491
348.489
348.482
348.469
348.45
348.426
348.4
348.374
348.352
348.341
348.341
348.346
348.334
348.21
347.408
343.615
343.935
347.575
348.265
348.378
348.396
348.394
348.394
348.399
348.41
348.426
348.443
348.459
348.471
348.48
348.484
348.482
348.476
348.465
348.449
348.431
348.412
348.395
348.384
348.382
348.388
348.397
348.388
348.283
347.6
343.954
344.223
347.714
348.311
348.408
348.423
348.42
348.417
348.418
348.424
348.434
348.446
348.459
348.469
348.476
348.479
348.478
348.473
348.464
348.451
348.438
348.425
348.415
348.41
348.413
348.422
348.431
348.423
348.332
347.738
344.24
344.462
347.816
348.341
348.426
348.439
348.436
348.433
348.432
348.435
348.442
348.451
348.46
348.468
348.473
348.476
348.475
348.471
348.464
348.455
348.445
348.437
348.431
348.43
348.435
348.444
348.451
348.444
348.363
347.838
344.477
344.651
347.89
348.361
348.436
348.448
348.446
348.442
348.441
348.443
348.448
348.454
348.461
348.468
348.472
348.474
348.474
348.471
348.465
348.459
348.452
348.446
348.443
348.444
348.449
348.457
348.463
348.455
348.382
347.91
344.663
344.793
347.942
348.373
348.44
348.451
348.45
348.447
348.446
348.448
348.451
348.457
348.462
348.467
348.471
348.473
348.473
348.471
348.467
348.462
348.457
348.453
348.451
348.452
348.457
348.463
348.467
348.459
348.393
347.96
344.804
344.895
347.976
348.379
348.441
348.451
348.451
348.449
348.448
348.45
348.453
348.458
348.463
348.467
348.47
348.472
348.472
348.47
348.467
348.464
348.46
348.457
348.456
348.457
348.46
348.464
348.468
348.459
348.398
347.993
344.905
344.96
347.996
348.381
348.44
348.45
348.449
348.448
348.448
348.45
348.453
348.458
348.462
348.466
348.469
348.47
348.47
348.469
348.467
348.464
348.461
348.458
348.457
348.458
348.46
348.464
348.466
348.457
348.399
348.012
344.97
344.992
348.005
348.381
348.438
348.447
348.448
348.447
348.447
348.449
348.452
348.456
348.46
348.464
348.467
348.468
348.469
348.468
348.466
348.463
348.46
348.458
348.456
348.457
348.459
348.462
348.463
348.455
348.398
348.02
345.001
344.991
348.004
348.38
348.436
348.446
348.445
348.445
348.445
348.447
348.45
348.454
348.458
348.462
348.465
348.466
348.467
348.465
348.463
348.46
348.458
348.455
348.454
348.454
348.456
348.459
348.461
348.453
348.396
348.019
345
344.959
347.993
348.376
348.434
348.444
348.443
348.442
348.442
348.443
348.447
348.451
348.455
348.459
348.462
348.464
348.464
348.463
348.46
348.457
348.454
348.451
348.449
348.45
348.452
348.456
348.458
348.45
348.392
348.007
344.967
344.892
347.97
348.371
348.432
348.441
348.44
348.438
348.437
348.439
348.442
348.447
348.452
348.456
348.46
348.461
348.461
348.46
348.457
348.452
348.448
348.445
348.443
348.443
348.446
348.451
348.454
348.447
348.386
347.984
344.901
344.789
347.933
348.362
348.428
348.438
348.436
348.432
348.431
348.432
348.436
348.442
348.448
348.453
348.457
348.459
348.459
348.457
348.452
348.447
348.441
348.437
348.434
348.434
348.438
348.444
348.449
348.442
348.377
347.948
344.798
344.646
347.88
348.348
348.421
348.431
348.428
348.423
348.422
348.423
348.428
348.435
348.443
348.45
348.455
348.457
348.457
348.454
348.448
348.441
348.433
348.426
348.422
348.422
348.426
348.433
348.439
348.432
348.362
347.894
344.655
344.456
347.804
348.325
348.408
348.418
348.414
348.41
348.408
348.412
348.419
348.429
348.439
348.447
348.454
348.457
348.456
348.452
348.444
348.434
348.424
348.414
348.407
348.404
348.408
348.416
348.423
348.417
348.338
347.819
344.466
344.217
347.701
348.292
348.386
348.398
348.394
348.39
348.391
348.398
348.409
348.422
348.435
348.446
348.454
348.458
348.457
348.451
348.442
348.429
348.414
348.4
348.388
348.382
348.383
348.39
348.398
348.391
348.302
347.715
344.228
343.928
347.56
348.244
348.353
348.368
348.365
348.363
348.369
348.381
348.398
348.416
348.433
348.447
348.457
348.461
348.46
348.454
348.442
348.426
348.407
348.386
348.367
348.354
348.349
348.354
348.361
348.352
348.25
347.573
343.939
343.586
347.368
348.173
348.304
348.324
348.325
348.329
348.343
348.365
348.389
348.414
348.435
348.451
348.462
348.467
348.466
348.459
348.446
348.427
348.402
348.374
348.346
348.323
348.308
348.305
348.308
348.295
348.173
347.377
343.597
343.186
347.102
348.07
348.233
348.263
348.272
348.288
348.315
348.349
348.383
348.414
348.439
348.458
348.47
348.476
348.475
348.467
348.453
348.431
348.402
348.367
348.328
348.29
348.259
348.243
348.237
348.213
348.06
347.106
343.195
342.758
346.721
347.918
348.141
348.186
348.205
348.239
348.285
348.334
348.378
348.415
348.444
348.464
348.477
348.482
348.482
348.474
348.459
348.436
348.404
348.362
348.312
348.256
348.204
348.167
348.147
348.108
347.896
346.717
342.765
342.332
346.174
347.757
348.062
348.08
348.105
348.167
348.24
348.306
348.361
348.403
348.433
348.454
348.468
348.474
348.473
348.466
348.452
348.428
348.394
348.347
348.286
348.211
348.128
348.059
348.028
348.012
347.719
346.159
342.335
342.39
345.642
348.168
347.943
347.81
347.861
347.98
348.094
348.185
348.254
348.305
348.341
348.367
348.382
348.39
348.39
348.382
348.366
348.339
348.3
348.245
348.17
348.07
347.945
347.813
347.748
347.873
348.102
345.609
342.391
335.864
354.456
348.406
346.797
346.534
346.758
347.026
347.246
347.419
347.553
347.653
347.726
347.778
347.811
347.828
347.828
347.812
347.779
347.727
347.653
347.551
347.414
347.235
347.004
346.721
346.478
346.718
348.308
354.354
335.865
426.121
355.756
347.203
343.095
342.43
342.543
342.776
343.027
343.273
343.484
343.653
343.785
343.884
343.95
343.983
343.983
343.95
343.885
343.786
343.654
343.485
343.273
343.026
342.771
342.53
342.406
343.05
347.125
355.637
425.871
448.379
363.891
348.012
339.367
336.652
335.976
335.906
336.033
336.235
336.45
336.648
336.81
336.931
337.01
337.049
337.048
337.006
336.924
336.8
336.635
336.436
336.221
336.024
335.91
336.007
336.731
339.518
348.242
364.189
448.89
332.091
361.476
352.589
347.262
344.32
343.345
343.251
343.438
343.683
343.917
344.117
344.275
344.39
344.464
344.5
344.498
344.458
344.38
344.261
344.101
343.902
343.675
343.446
343.289
343.43
344.463
347.455
352.788
361.645
332.04
336.906
343.64
349.524
349.023
347.736
346.952
346.655
346.6
346.632
346.688
346.744
346.792
346.829
346.853
346.864
346.862
346.847
346.819
346.781
346.734
346.685
346.642
346.633
346.721
347.056
347.872
349.163
349.625
343.666
336.882
335.912
341.774
346.345
347.998
348.102
347.86
347.664
347.559
347.512
347.492
347.485
347.484
347.486
347.487
347.487
347.486
347.483
347.48
347.479
347.484
347.5
347.534
347.602
347.73
347.947
348.195
348.073
346.378
341.766
335.884
336.281
342.167
345.895
347.41
347.886
347.952
347.899
347.835
347.784
347.748
347.722
347.704
347.692
347.684
347.68
347.679
347.682
347.69
347.704
347.727
347.762
347.81
347.875
347.951
348.009
347.938
347.441
345.894
342.138
336.246
336.636
342.934
346.152
347.319
347.753
347.898
347.922
347.901
347.869
347.837
347.81
347.788
347.771
347.761
347.755
347.755
347.76
347.772
347.791
347.818
347.852
347.892
347.932
347.956
347.93
347.775
347.322
346.13
342.892
336.598
337.031
343.568
346.437
347.37
347.714
347.853
347.9
347.905
347.889
347.867
347.843
347.823
347.806
347.795
347.789
347.79
347.796
347.808
347.827
347.851
347.879
347.906
347.924
347.919
347.865
347.716
347.355
346.404
343.521
336.992
337.453
344.067
346.657
347.436
347.713
347.83
347.879
347.892
347.887
347.872
347.854
347.837
347.822
347.812
347.806
347.807
347.812
347.824
347.84
347.86
347.88
347.896
347.901
347.884
347.828
347.701
347.411
346.619
344.022
337.418
337.842
344.464
346.827
347.496
347.725
347.821
347.864
347.879
347.878
347.869
347.855
347.841
347.829
347.82
347.815
347.816
347.821
347.83
347.843
347.858
347.872
347.881
347.88
347.86
347.81
347.705
347.466
346.789
344.424
337.813
338.176
344.777
346.961
347.549
347.742
347.822
347.857
347.87
347.87
347.864
347.853
347.842
347.832
347.825
347.821
347.821
347.825
347.832
347.843
347.854
347.863
347.868
347.864
347.847
347.805
347.718
347.518
346.926
344.744
338.153
338.456
345.022
347.068
347.595
347.762
347.828
347.855
347.865
347.865
347.859
347.851
347.842
347.834
347.828
347.825
347.825
347.828
347.834
347.841
347.849
347.856
347.859
347.855
347.841
347.808
347.737
347.566
347.036
344.995
338.438
338.681
345.208
347.15
347.635
347.782
347.837
347.858
347.864
347.863
347.857
347.85
347.843
347.837
347.832
347.829
347.829
347.831
347.835
347.84
347.846
347.851
347.854
347.852
347.842
347.817
347.758
347.608
347.123
345.187
338.667
338.85
345.344
347.211
347.666
347.8
347.847
347.862
347.865
347.863
347.857
347.851
347.845
347.839
347.835
347.833
347.832
347.834
347.837
347.841
347.845
347.85
347.853
347.852
347.846
347.827
347.777
347.642
347.188
345.326
338.838
338.963
345.432
347.252
347.688
347.814
347.855
347.867
347.868
347.864
347.858
347.852
347.847
347.842
347.838
347.836
347.836
347.837
347.839
347.842
347.846
347.85
347.853
347.855
347.851
347.836
347.792
347.666
347.232
345.417
338.953
339.02
345.477
347.273
347.701
347.822
347.861
347.871
347.871
347.866
347.86
347.854
347.849
347.844
347.841
347.839
347.839
347.839
347.842
347.845
347.848
347.852
347.856
347.858
347.855
347.842
347.802
347.68
347.255
345.463
339.01
339.02
345.478
347.275
347.703
347.824
347.863
347.874
347.873
347.869
347.863
347.857
347.851
347.847
347.843
347.841
347.841
347.842
347.844
347.847
347.851
347.855
347.859
347.861
347.859
347.846
347.805
347.683
347.257
345.464
339.011
338.965
345.436
347.258
347.694
347.82
347.862
347.874
347.875
347.871
347.866
347.859
347.854
347.849
347.845
347.843
347.843
347.844
347.847
347.85
347.855
347.859
347.863
347.864
347.861
347.846
347.802
347.675
347.239
345.422
338.955
338.854
345.35
347.22
347.676
347.811
347.858
347.874
347.877
347.874
347.869
347.862
347.856
347.85
347.846
347.844
347.844
347.845
347.849
347.854
347.859
347.864
347.867
347.868
347.862
347.843
347.793
347.657
347.201
345.335
338.843
338.686
345.217
347.162
347.648
347.797
347.852
347.874
347.88
347.879
347.873
347.866
347.858
347.852
347.847
347.844
347.844
347.846
347.851
347.857
347.864
347.87
347.874
347.873
347.864
347.839
347.781
347.629
347.142
345.199
338.674
338.462
345.032
347.082
347.612
347.78
347.847
347.875
347.885
347.885
347.879
347.87
347.861
347.853
347.846
347.843
347.843
347.847
347.853
347.862
347.871
347.879
347.884
347.882
347.869
347.837
347.766
347.593
347.06
345.012
338.448
338.182
344.788
346.977
347.568
347.764
347.844
347.88
347.893
347.893
347.886
347.875
347.863
347.853
347.845
347.841
347.842
347.846
347.854
347.866
347.878
347.889
347.896
347.895
347.879
347.839
347.753
347.551
346.956
344.765
338.165
337.848
344.475
346.845
347.518
347.75
347.848
347.891
347.906
347.904
347.894
347.879
347.864
347.851
347.842
347.837
347.838
347.843
347.853
347.868
347.884
347.9
347.912
347.913
347.897
347.849
347.745
347.506
346.825
344.45
337.828
337.459
344.078
346.677
347.462
347.742
347.86
347.909
347.922
347.915
347.899
347.879
347.861
347.845
347.834
347.829
347.829
347.835
347.848
347.865
347.886
347.909
347.928
347.936
347.923
347.871
347.746
347.457
346.661
344.053
337.437
337.037
343.579
346.46
347.399
347.747
347.887
347.934
347.936
347.919
347.894
347.869
347.847
347.829
347.818
347.812
347.812
347.818
347.832
347.851
347.877
347.906
347.936
347.958
347.957
347.909
347.764
347.407
346.452
343.557
337.014
336.643
342.947
346.178
347.353
347.791
347.935
347.958
347.934
347.899
347.864
347.834
347.811
347.794
347.782
347.777
347.777
347.782
347.794
347.814
347.841
347.877
347.919
347.962
347.991
347.972
347.825
347.378
346.185
342.933
336.625
336.29
342.185
345.927
347.451
347.929
347.993
347.936
347.868
347.813
347.773
347.744
347.725
347.712
347.704
347.7
347.699
347.702
347.71
347.724
347.748
347.783
347.832
347.899
347.979
348.045
347.983
347.498
345.955
342.188
336.279
335.925
341.801
346.386
348.047
348.15
347.903
347.7
347.589
347.537
347.514
347.504
347.502
347.503
347.504
347.505
347.503
347.501
347.498
347.497
347.502
347.517
347.551
347.619
347.748
347.969
348.227
348.123
346.442
341.828
335.927
336.925
343.679
349.58
349.081
347.786
346.992
346.687
346.624
346.652
346.704
346.759
346.806
346.843
346.867
346.878
346.877
346.862
346.834
346.796
346.749
346.699
346.655
346.643
346.728
347.062
347.883
349.191
349.68
343.738
336.939
332.105
361.554
352.659
347.321
344.363
343.374
343.27
343.451
343.694
343.927
344.127
344.285
344.401
344.475
344.511
344.509
344.47
344.391
344.273
344.112
343.912
343.682
343.45
343.288
343.425
344.455
347.452
352.806
361.706
332.118
448.578
363.983
348.074
339.407
336.675
335.989
335.914
336.037
336.24
336.456
336.653
336.816
336.937
337.016
337.055
337.054
337.012
336.93
336.807
336.641
336.442
336.226
336.027
335.912
336.005
336.722
339.501
348.222
364.185
448.987
444.814
361.713
346.234
337.365
334.344
333.463
333.281
333.316
333.422
333.532
333.628
333.708
333.771
333.815
333.838
333.84
333.82
333.78
333.721
333.644
333.549
333.437
333.324
333.273
333.423
334.247
337.182
345.954
361.353
444.174
332.305
360.188
352.152
346.357
342.532
340.888
340.486
340.617
340.919
341.237
341.517
341.742
341.909
342.02
342.076
342.078
342.027
341.921
341.757
341.535
341.254
340.927
340.606
340.441
340.792
342.374
346.146
351.926
359.979
332.333
336.147
343.394
349.518
348.962
346.98
345.542
344.985
344.976
345.184
345.432
345.651
345.822
345.946
346.026
346.067
346.069
346.032
345.955
345.832
345.659
345.433
345.17
344.936
344.907
345.419
346.822
348.797
349.385
343.334
336.132
334.028
340.292
345.463
347.787
347.923
347.446
347.123
347.051
347.128
347.255
347.38
347.48
347.554
347.601
347.625
347.626
347.605
347.558
347.483
347.376
347.24
347.095
346.993
347.036
347.333
347.8
347.681
345.398
340.265
334.027
334.014
339.875
344.241
346.795
347.74
347.882
347.829
347.804
347.842
347.913
347.99
348.057
348.108
348.141
348.157
348.157
348.141
348.106
348.051
347.977
347.888
347.8
347.745
347.752
347.796
347.659
346.735
344.214
339.876
334.035
334.197
340.41
344.45
346.7
347.644
347.964
348.051
348.083
348.12
348.17
348.224
348.273
348.311
348.337
348.349
348.349
348.334
348.305
348.262
348.205
348.141
348.08
348.032
347.993
347.906
347.597
346.675
344.453
340.436
334.231
334.379
341.058
345.032
346.949
347.718
348.025
348.146
348.202
348.243
348.284
348.325
348.362
348.393
348.413
348.423
348.422
348.409
348.385
348.349
348.306
348.257
348.209
348.164
348.107
347.991
347.698
346.949
345.055
341.099
334.418
334.56
341.639
345.548
347.214
347.843
348.099
348.212
348.269
348.308
348.342
348.374
348.404
348.427
348.444
348.451
348.45
348.439
348.419
348.391
348.357
348.321
348.283
348.244
348.189
348.085
347.843
347.231
345.582
341.685
334.597
334.741
342.13
345.928
347.416
347.954
348.167
348.264
348.315
348.349
348.376
348.401
348.423
348.441
348.453
348.459
348.458
348.449
348.433
348.412
348.387
348.361
348.333
348.301
348.255
348.168
347.967
347.443
345.966
342.173
334.774
334.914
342.534
346.2
347.556
348.032
348.219
348.304
348.348
348.376
348.397
348.415
348.432
348.445
348.454
348.458
348.457
348.45
348.439
348.424
348.406
348.387
348.367
348.343
348.305
348.229
348.053
347.587
346.238
342.572
334.942
335.068
342.856
346.393
347.648
348.083
348.253
348.33
348.37
348.393
348.41
348.423
348.435
348.444
348.45
348.453
348.453
348.448
348.44
348.43
348.418
348.405
348.391
348.372
348.339
348.269
348.107
347.679
346.427
342.887
335.091
335.196
343.102
346.528
347.707
348.113
348.274
348.347
348.383
348.404
348.417
348.427
348.435
348.441
348.445
348.447
348.447
348.444
348.439
348.432
348.425
348.417
348.407
348.391
348.36
348.293
348.139
347.737
346.558
343.128
335.215
335.295
343.278
346.617
347.743
348.13
348.284
348.355
348.39
348.408
348.419
348.427
348.433
348.437
348.44
348.441
348.441
348.439
348.436
348.432
348.428
348.422
348.415
348.4
348.37
348.305
348.155
347.771
346.644
343.3
335.311
335.361
343.391
346.672
347.763
348.137
348.288
348.357
348.391
348.409
348.419
348.425
348.429
348.433
348.435
348.436
348.436
348.435
348.433
348.43
348.427
348.424
348.417
348.403
348.373
348.309
348.162
347.789
346.696
343.41
335.376
335.394
343.444
346.696
347.77
348.138
348.287
348.356
348.39
348.407
348.417
348.422
348.426
348.428
348.43
348.431
348.431
348.43
348.429
348.427
348.425
348.422
348.415
348.402
348.372
348.307
348.162
347.795
346.719
343.462
335.407
335.392
343.441
346.693
347.766
348.134
348.283
348.352
348.386
348.403
348.413
348.418
348.422
348.425
348.426
348.427
348.427
348.426
348.425
348.423
348.42
348.417
348.41
348.397
348.366
348.302
348.156
347.79
346.715
343.459
335.405
335.356
343.383
346.662
347.752
348.125
348.275
348.345
348.379
348.397
348.407
348.413
348.418
348.421
348.424
348.425
348.424
348.423
348.421
348.418
348.414
348.41
348.402
348.388
348.357
348.292
348.146
347.774
346.684
343.4
335.369
335.286
343.266
346.602
347.724
348.11
348.264
348.334
348.369
348.388
348.4
348.408
348.414
348.419
348.422
348.423
348.423
348.42
348.417
348.412
348.406
348.399
348.39
348.375
348.344
348.278
348.129
347.746
346.623
343.284
335.3
335.184
343.086
346.506
347.682
348.086
348.246
348.319
348.355
348.376
348.39
348.401
348.409
348.416
348.421
348.423
348.422
348.419
348.413
348.405
348.396
348.386
348.374
348.356
348.323
348.256
348.102
347.702
346.528
343.105
335.199
335.053
342.836
346.367
347.617
348.049
348.219
348.295
348.335
348.359
348.377
348.391
348.404
348.414
348.421
348.424
348.423
348.418
348.408
348.397
348.383
348.368
348.351
348.329
348.293
348.222
348.06
347.634
346.388
342.858
335.069
334.897
342.511
346.169
347.519
347.992
348.178
348.262
348.307
348.336
348.359
348.379
348.397
348.411
348.421
348.425
348.424
348.416
348.403
348.386
348.366
348.345
348.321
348.293
348.252
348.173
347.996
347.531
346.189
342.535
334.915
334.722
342.105
345.892
347.373
347.908
348.12
348.217
348.27
348.305
348.335
348.361
348.385
348.404
348.418
348.424
348.422
348.412
348.396
348.372
348.345
348.315
348.283
348.247
348.196
348.104
347.901
347.377
345.907
342.128
334.742
334.54
341.612
345.508
347.165
347.791
348.046
348.16
348.22
348.262
348.299
348.333
348.364
348.39
348.407
348.415
348.413
348.401
348.38
348.35
348.314
348.274
348.232
348.187
348.126
348.016
347.769
347.157
345.514
341.632
334.559
334.357
341.026
344.987
346.894
347.66
347.967
348.091
348.151
348.196
348.24
348.284
348.324
348.355
348.377
348.387
348.386
348.372
348.346
348.31
348.263
348.212
348.16
348.109
348.044
347.92
347.62
346.867
344.979
341.038
334.374
334.171
340.372
344.399
346.639
347.581
347.903
347.995
348.032
348.074
348.128
348.185
348.236
348.276
348.302
348.315
348.314
348.299
348.269
348.224
348.166
348.1
348.035
347.982
347.935
347.838
347.518
346.588
344.37
340.365
334.179
333.982
339.828
344.182
346.73
347.675
347.822
347.775
347.757
347.8
347.876
347.956
348.025
348.076
348.109
348.126
348.125
348.108
348.073
348.018
347.943
347.853
347.763
347.705
347.706
347.74
347.588
346.649
344.123
339.794
333.974
333.988
340.236
345.397
347.719
347.86
347.391
347.076
347.012
347.094
347.225
347.352
347.454
347.528
347.575
347.598
347.599
347.577
347.53
347.454
347.348
347.212
347.066
346.965
347.006
347.297
347.75
347.609
345.306
340.172
333.954
336.1
343.329
349.445
348.896
346.924
345.496
344.949
344.947
345.16
345.41
345.631
345.803
345.926
346.006
346.046
346.048
346.011
345.933
345.811
345.637
345.411
345.149
344.918
344.892
345.405
346.802
348.757
349.312
343.234
336.046
332.257
360.094
352.079
346.298
342.486
340.854
340.462
340.599
340.905
341.225
341.505
341.729
341.896
342.006
342.062
342.064
342.012
341.906
341.742
341.519
341.238
340.912
340.592
340.431
340.787
342.374
346.143
351.903
359.899
332.204
444.577
361.623
346.171
337.322
334.315
333.443
333.267
333.305
333.412
333.522
333.618
333.698
333.76
333.803
333.826
333.828
333.808
333.768
333.708
333.63
333.536
333.424
333.312
333.262
333.416
334.248
337.196
345.978
361.37
444.039
443.645
362.007
346.864
337.596
333.821
332.263
331.615
331.357
331.279
331.27
331.286
331.309
331.332
331.348
331.356
331.355
331.345
331.327
331.303
331.28
331.267
331.282
331.376
331.663
332.363
334.002
337.893
347.284
362.521
444.557
331.058
359.336
352.282
346.697
342.408
339.975
338.835
338.421
338.366
338.463
338.608
338.751
338.869
338.95
338.991
338.989
338.945
338.861
338.743
338.602
338.464
338.383
338.469
338.931
340.138
342.648
347
352.602
359.644
331.024
335.349
342.717
349.214
349.065
346.992
344.959
343.651
343.018
342.82
342.849
342.97
343.11
343.23
343.315
343.358
343.356
343.31
343.222
343.101
342.966
342.859
342.856
343.093
343.777
345.14
347.215
349.294
349.4
342.804
335.373
332.705
339.166
344.639
347.486
347.906
347.227
346.447
345.937
345.704
345.646
345.673
345.728
345.783
345.823
345.844
345.843
345.822
345.782
345.731
345.683
345.671
345.756
346.028
346.578
347.39
348.076
347.631
344.73
339.211
332.725
332.227
338.068
342.668
345.82
347.355
347.683
347.503
347.247
347.062
346.961
346.918
346.906
346.907
346.912
346.916
346.916
346.915
346.914
346.919
346.942
347.001
347.124
347.336
347.615
347.806
347.468
345.901
342.708
338.078
332.216
332.167
338.108
342.25
345.176
346.88
347.566
347.714
347.662
347.567
347.488
347.434
347.401
347.382
347.372
347.369
347.37
347.378
347.393
347.419
347.463
347.531
347.626
347.736
347.798
347.646
346.943
345.209
342.25
338.087
332.137
332.218
338.481
342.509
345.224
346.759
347.449
347.706
347.763
347.742
347.699
347.658
347.626
347.603
347.59
347.584
347.587
347.597
347.616
347.646
347.687
347.738
347.79
347.818
347.761
347.493
346.782
345.218
342.478
338.439
332.179
332.318
338.914
342.964
345.519
346.824
347.417
347.679
347.777
347.797
347.784
347.76
347.736
347.717
347.704
347.699
347.701
347.711
347.729
347.754
347.784
347.814
347.832
347.813
347.709
347.434
346.819
345.488
342.915
338.862
332.276
332.443
339.334
343.429
345.828
346.938
347.437
347.671
347.775
347.813
347.818
347.808
347.793
347.779
347.77
347.766
347.768
347.776
347.79
347.808
347.827
347.84
347.835
347.794
347.682
347.435
346.917
345.786
343.373
339.281
332.403
332.573
339.716
343.842
346.085
347.05
347.475
347.677
347.775
347.819
347.833
347.832
347.824
347.815
347.808
347.805
347.807
347.813
347.823
347.835
347.845
347.846
347.83
347.781
347.674
347.46
347.02
346.04
343.787
339.668
332.537
332.695
340.047
344.184
346.287
347.146
347.515
347.69
347.779
347.822
347.841
347.845
347.842
347.837
347.832
347.83
347.831
347.836
347.842
347.848
347.852
347.846
347.825
347.775
347.678
347.492
347.111
346.242
344.134
340.004
332.663
332.8
340.317
344.451
346.441
347.223
347.552
347.706
347.786
347.827
347.846
347.852
347.853
347.85
347.847
347.846
347.846
347.849
347.853
347.856
347.855
347.846
347.823
347.776
347.688
347.524
347.186
346.397
344.406
340.279
332.77
332.883
340.523
344.645
346.553
347.282
347.582
347.722
347.794
347.832
347.85
347.858
347.86
347.859
347.857
347.856
347.856
347.858
347.859
347.86
347.857
347.846
347.823
347.78
347.701
347.553
347.245
346.511
344.604
340.489
332.856
332.942
340.663
344.771
346.625
347.322
347.604
347.735
347.802
347.837
347.855
347.862
347.865
347.865
347.864
347.863
347.863
347.864
347.864
347.863
347.859
347.848
347.826
347.785
347.712
347.575
347.286
346.586
344.733
340.632
332.916
332.973
340.736
344.834
346.662
347.344
347.618
347.744
347.808
347.841
347.859
347.866
347.869
347.869
347.868
347.868
347.867
347.868
347.868
347.867
347.862
347.851
347.829
347.791
347.721
347.589
347.309
346.625
344.798
340.706
332.949
332.975
340.739
344.838
346.666
347.348
347.622
347.748
347.811
347.845
347.862
347.87
347.872
347.872
347.871
347.87
347.87
347.871
347.871
347.87
347.866
347.855
347.834
347.795
347.726
347.594
347.315
346.63
344.803
340.71
332.952
332.949
340.672
344.781
346.637
347.334
347.616
347.747
347.813
347.848
347.865
347.873
347.874
347.874
347.873
347.872
347.872
347.873
347.874
347.873
347.87
347.86
347.839
347.799
347.727
347.591
347.302
346.602
344.747
340.644
332.925
332.895
340.538
344.662
346.571
347.301
347.602
347.742
347.813
347.85
347.868
347.875
347.875
347.874
347.872
347.87
347.871
347.873
347.875
347.876
347.875
347.866
347.845
347.803
347.726
347.58
347.273
346.538
344.628
340.509
332.872
332.817
340.338
344.474
346.467
347.25
347.579
347.734
347.812
347.852
347.87
347.875
347.874
347.871
347.867
347.865
347.866
347.869
347.874
347.878
347.879
347.872
347.852
347.808
347.724
347.562
347.225
346.435
344.44
340.308
332.794
332.718
340.073
344.213
346.32
347.181
347.551
347.725
347.812
347.854
347.871
347.873
347.869
347.862
347.857
347.854
347.855
347.86
347.868
347.876
347.881
347.879
347.861
347.816
347.723
347.541
347.162
346.292
344.179
340.043
332.694
332.6
339.748
343.876
346.125
347.093
347.518
347.719
347.815
347.857
347.869
347.865
347.855
347.845
347.837
347.833
347.835
347.842
347.853
347.866
347.878
347.884
347.872
347.829
347.728
347.519
347.083
346.103
343.844
339.717
332.576
332.474
339.37
343.47
345.875
346.989
347.489
347.72
347.821
347.856
347.858
347.845
347.828
347.812
347.801
347.796
347.798
347.807
347.822
347.842
347.863
347.88
347.881
347.847
347.743
347.504
346.992
345.862
343.443
339.342
332.451
332.353
338.956
343.013
345.575
346.884
347.477
347.735
347.829
347.844
347.826
347.799
347.772
347.751
347.738
347.732
347.734
347.744
347.762
347.789
347.821
347.855
347.879
347.868
347.775
347.511
346.906
345.577
342.999
338.935
332.333
332.259
338.532
342.569
345.292
346.83
347.516
347.767
347.818
347.79
347.742
347.697
347.662
347.638
347.624
347.617
347.619
347.629
347.649
347.68
347.723
347.777
347.834
347.871
347.826
347.574
346.877
345.321
342.578
338.527
332.248
332.216
338.172
342.325
345.257
346.96
347.638
347.777
347.716
347.614
347.529
347.472
347.436
347.416
347.405
347.401
347.402
347.41
347.425
347.452
347.496
347.566
347.665
347.781
347.856
347.722
347.04
345.322
342.367
338.193
332.218
332.287
338.147
342.758
345.912
347.44
347.755
347.563
347.296
347.103
346.997
346.952
346.938
346.938
346.943
346.946
346.947
346.945
346.944
346.949
346.97
347.029
347.152
347.368
347.657
347.866
347.555
346.016
342.839
338.203
332.313
332.78
339.261
344.741
347.582
347.987
347.292
346.499
345.978
345.736
345.674
345.699
345.754
345.809
345.85
345.87
345.87
345.848
345.808
345.755
345.705
345.691
345.774
346.044
346.599
347.423
348.136
347.728
344.863
339.353
332.841
335.435
342.827
349.323
349.155
347.062
345.013
343.692
343.05
342.845
342.87
342.989
343.129
343.25
343.336
343.379
343.377
343.331
343.242
343.121
342.985
342.875
342.869
343.102
343.782
345.146
347.234
349.346
349.506
342.955
335.511
331.159
359.481
352.381
346.773
342.465
340.019
338.868
338.448
338.388
338.483
338.627
338.77
338.888
338.97
339.011
339.01
338.966
338.882
338.763
338.621
338.482
338.399
338.48
338.935
340.133
342.637
346.997
352.635
359.765
331.211
443.985
362.117
346.941
337.65
333.861
332.295
331.641
331.379
331.299
331.289
331.305
331.329
331.351
331.368
331.377
331.376
331.366
331.348
331.324
331.301
331.287
331.302
331.394
331.676
332.365
333.988
337.86
347.243
362.498
444.76
437.355
358.652
344.496
336.046
332.814
331.527
330.997
330.789
330.727
330.722
330.736
330.756
330.775
330.789
330.797
330.797
330.789
330.775
330.755
330.733
330.716
330.715
330.765
330.951
331.442
332.658
335.773
344.085
358.119
436.423
331.245
357.042
350.18
344.917
341.03
338.88
337.882
337.519
337.467
337.55
337.674
337.796
337.897
337.968
338.004
338.004
337.968
337.898
337.796
337.672
337.543
337.449
337.477
337.802
338.743
340.82
344.64
349.878
356.736
331.276
335.22
342.127
347.931
347.623
345.657
343.766
342.537
341.934
341.744
341.773
341.892
342.029
342.149
342.235
342.28
342.281
342.237
342.152
342.032
341.891
341.763
341.715
341.874
342.434
343.612