/*--------------------------------*- C++ -*----------------------------------*\
| =========                 |                                                 |
| \\      /  F ield         | OpenFOAM: The Open Source CFD Toolbox           |
|  \\    /   O peration     | Version:  2312                                  |
|   \\  /    A nd           | Website:  www.openfoam.com                      |
|    \\/     M anipulation  |                                                 |
\*---------------------------------------------------------------------------*/
FoamFile
{
    version     2.0;
    format      ascii;
    arch        "LSB;label=32;scalar=64";
    class       volVectorField;
    location    "1000";
    object      U;
}
// * * * * * * * * * * * * * * * * * * * * * * * * * * * * * * * * * * * * * //

dimensions      [0 1 -1 0 0 0 0];

internalField   nonuniform List<vector> 
27000
(
(-6.37197e-05 0.000104794 0.107546)
(-0.000211577 0.000222203 0.0764417)
(-0.000110764 0.000229954 0.081894)
(-8.12078e-05 0.000207167 0.0835397)
(-4.67159e-05 0.000199701 0.0854389)
(-2.52969e-05 0.000198284 0.0869176)
(-9.2224e-06 0.000199426 0.0880187)
(2.55275e-06 0.000201333 0.0888983)
(1.03033e-05 0.000203647 0.0896319)
(1.43452e-05 0.000206044 0.0902163)
(1.539e-05 0.000208302 0.0906668)
(1.41901e-05 0.000210319 0.0910074)
(1.14037e-05 0.000211972 0.0912557)
(7.58105e-06 0.000213123 0.0914189)
(3.18998e-06 0.000213708 0.0915003)
(-1.34926e-06 0.000213715 0.0915018)
(-5.63807e-06 0.000213147 0.0914233)
(-9.24885e-06 0.000212021 0.0912632)
(-1.16913e-05 0.000210414 0.0910184)
(-1.23974e-05 0.000208485 0.0906813)
(-1.06738e-05 0.000206355 0.0902338)
(-5.74641e-06 0.000204183 0.0896515)
(3.08652e-06 0.00020223 0.0889185)
(1.61235e-05 0.000200946 0.0880376)
(3.34696e-05 0.000200753 0.0869318)
(5.59496e-05 0.000203241 0.0854436)
(9.06905e-05 0.000211746 0.083528)
(0.000119992 0.000235252 0.0818565)
(0.000220195 0.000229012 0.0763739)
(6.87619e-05 0.000108578 0.107414)
(0.00030018 -0.00013574 0.0626788)
(0.000124503 -4.84079e-05 0.0836646)
(9.29144e-05 0.000157022 0.091701)
(5.484e-05 0.000211345 0.094497)
(4.83428e-05 0.000235727 0.0958821)
(5.01959e-05 0.000251013 0.0968408)
(5.18762e-05 0.000263276 0.0975349)
(5.23538e-05 0.000273727 0.0980512)
(5.09953e-05 0.000282404 0.098445)
(4.74973e-05 0.000289422 0.0987431)
(4.19076e-05 0.000294961 0.0989639)
(3.4584e-05 0.00029917 0.099124)
(2.59655e-05 0.000302208 0.0992365)
(1.64815e-05 0.000304166 0.099309)
(6.51982e-06 0.000305135 0.0993454)
(-3.55729e-06 0.000305151 0.0993475)
(-1.33846e-05 0.000304223 0.0993151)
(-2.26034e-05 0.000302315 0.0992465)
(-3.08286e-05 0.000299365 0.0991374)
(-3.76435e-05 0.000295284 0.0989795)
(-4.26373e-05 0.000289962 0.0987592)
(-4.55094e-05 0.000283262 0.0984582)
(-4.62689e-05 0.000275116 0.0980568)
(-4.53021e-05 0.000265468 0.0975263)
(-4.33018e-05 0.000254321 0.0968097)
(-4.14263e-05 0.000240319 0.0958203)
(-4.84423e-05 0.000216962 0.0944004)
(-8.80764e-05 0.000163027 0.0915768)
(-0.000121732 -4.43564e-05 0.083543)
(-0.000304498 -0.000138476 0.0626344)
(9.63441e-05 0.00014013 0.0806315)
(0.000119953 0.000165162 0.0899752)
(0.000157206 0.000218816 0.0968164)
(0.000144462 0.000249669 0.0985011)
(0.000125638 0.000268673 0.0990725)
(0.000110886 0.000281597 0.0994127)
(9.86387e-05 0.000291646 0.0996808)
(8.78266e-05 0.00030001 0.0998957)
(7.76821e-05 0.000306948 0.100065)
(6.74664e-05 0.000312533 0.100196)
(5.67383e-05 0.000316824 0.100293)
(4.53434e-05 0.000320003 0.100364)
(3.33431e-05 0.000322207 0.100413)
(2.08841e-05 0.000323603 0.100444)
(8.16639e-06 0.000324268 0.10046)
(-4.59531e-06 0.000324281 0.100461)
(-1.71914e-05 0.000323632 0.100448)
(-2.94117e-05 0.000322299 0.100418)
(-4.10829e-05 0.000320186 0.100369)
(-5.2084e-05 0.000317191 0.100296)
(-6.24105e-05 0.000313175 0.100192)
(-7.22802e-05 0.000308048 0.10005)
(-8.22168e-05 0.000301754 0.0998635)
(-9.30003e-05 0.000294282 0.0996239)
(-0.00010544 0.000285265 0.0993245)
(-0.000120653 0.000273331 0.0989502)
(-0.000140315 0.000254888 0.0983515)
(-0.0001544 0.000223435 0.0966657)
(-0.000119424 0.000167309 0.0898753)
(-9.95881e-05 0.000136789 0.0805956)
(0.000140955 6.08326e-05 0.084006)
(0.000150317 0.000148381 0.0940134)
(0.000178302 0.000223782 0.0982222)
(0.000171064 0.000248355 0.0993065)
(0.000156245 0.000262667 0.0996674)
(0.00013908 0.000272509 0.0998632)
(0.000122226 0.000280206 0.100022)
(0.000106502 0.000286707 0.100161)
(9.18838e-05 0.000292245 0.100281)
(7.79645e-05 0.000296803 0.100379)
(6.43213e-05 0.000300364 0.100455)
(5.06733e-05 0.000302983 0.100512)
(3.68805e-05 0.000304794 0.100551)
(2.29333e-05 0.000305908 0.100577)
(8.8859e-06 0.00030645 0.100589)
(-5.17025e-06 0.000306462 0.100589)
(-1.91242e-05 0.000305973 0.100576)
(-3.28968e-05 0.000304932 0.100549)
(-4.64565e-05 0.000303276 0.100506)
(-5.98544e-05 0.000300898 0.100442)
(-7.32872e-05 0.000297722 0.100355)
(-8.7093e-05 0.000293714 0.100241)
(-0.000101742 0.000288905 0.1001)
(-0.000117672 0.000283262 0.0999345)
(-0.00013492 0.000276438 0.0997489)
(-0.000152668 0.000267244 0.0995303)
(-0.000168236 0.000253058 0.09916)
(-0.000176593 0.000227462 0.0980935)
(-0.000150552 0.000149189 0.0939437)
(-0.000143807 5.71582e-05 0.0839937)
(0.000137001 9.10158e-05 0.0865542)
(0.000170793 0.000157852 0.0960296)
(0.000197796 0.000216715 0.0989813)
(0.000188921 0.000238187 0.0996283)
(0.000174193 0.000249891 0.0998499)
(0.000156542 0.000257576 0.0999752)
(0.000138049 0.000263351 0.100081)
(0.000120005 0.000268127 0.100184)
(0.000102834 0.000272198 0.100279)
(8.64675e-05 0.000275592 0.100364)
(7.06677e-05 0.000278279 0.100433)
(5.52039e-05 0.000280276 0.100488)
(3.98939e-05 0.000281648 0.100527)
(2.46352e-05 0.000282499 0.100552)
(9.39241e-06 0.000282906 0.100563)
(-5.82394e-06 0.000282936 0.100562)
(-2.10042e-05 0.000282599 0.100547)
(-3.61533e-05 0.00028187 0.100518)
(-5.13266e-05 0.000280693 0.100472)
(-6.66721e-05 0.000279007 0.100408)
(-8.24027e-05 0.000276768 0.100324)
(-9.87997e-05 0.000273974 0.100223)
(-0.000116119 0.000270627 0.100107)
(-0.000134437 0.000266618 0.099983)
(-0.00015332 0.000261524 0.0998588)
(-0.000171424 0.000254245 0.099724)
(-0.000186667 0.000242402 0.0995076)
(-0.000196203 0.00021985 0.0988879)
(-0.000170596 0.00015844 0.0959911)
(-0.000138521 8.81816e-05 0.0865589)
(0.000143604 9.23086e-05 0.0883886)
(0.000187591 0.000161583 0.0972153)
(0.000213093 0.000207721 0.0994233)
(0.000203128 0.000223715 0.0998396)
(0.000187699 0.000232779 0.0999623)
(0.000169483 0.000238683 0.100032)
(0.000150147 0.000243018 0.100098)
(0.000130842 0.000246489 0.10017)
(0.0001121 0.000249364 0.100245)
(9.40313e-05 0.000251721 0.100316)
(7.65642e-05 0.00025358 0.10038)
(5.95465e-05 0.000254959 0.100431)
(4.28256e-05 0.000255906 0.10047)
(2.62759e-05 0.000256489 0.100495)
(9.81652e-06 0.000256779 0.100506)
(-6.60495e-06 0.000256825 0.100504)
(-2.30323e-05 0.00025664 0.100487)
(-3.95278e-05 0.000256218 0.100455)
(-5.61972e-05 0.000255514 0.100408)
(-7.31839e-05 0.000254492 0.100345)
(-9.068e-05 0.00025312 0.100268)
(-0.000108845 0.000251368 0.10018)
(-0.000127764 0.000249168 0.100089)
(-0.000147307 0.000246351 0.100002)
(-0.000166916 0.000242525 0.0999276)
(-0.000185412 0.000236841 0.0998594)
(-0.000201086 0.000227529 0.099751)
(-0.00021139 0.000210544 0.0993651)
(-0.000186788 0.000162352 0.097203)
(-0.000144001 9.05293e-05 0.0884038)
(0.000150254 9.24067e-05 0.08976)
(0.000202762 0.000156708 0.0979653)
(0.000226102 0.00019391 0.0996992)
(0.000215099 0.000206228 0.0999887)
(0.00019888 0.000213087 0.100052)
(0.000180091 0.000217531 0.100081)
(0.000160171 0.000220728 0.100114)
(0.000140075 0.000223185 0.10016)
(0.000120281 0.000225121 0.100215)
(0.000100974 0.00022663 0.100272)
(8.21676e-05 0.000227771 0.100327)
(6.37957e-05 0.000228586 0.100374)
(4.57452e-05 0.00022913 0.100411)
(2.79068e-05 0.00022946 0.100435)
(1.01876e-05 0.000229637 0.100445)
(-7.49208e-06 0.0002297 0.100442)
(-2.52028e-05 0.000229672 0.100424)
(-4.3031e-05 0.000229541 0.100392)
(-6.10826e-05 0.000229284 0.100347)
(-7.94858e-05 0.000228858 0.100288)
(-9.83573e-05 0.000228218 0.100221)
(-0.000117776 0.000227293 0.10015)
(-0.000137709 0.000225966 0.100084)
(-0.00015796 0.000224052 0.100031)
(-0.000178019 0.000221235 0.0999962)
(-0.000196901 0.000216899 0.0999756)
(-0.000213187 0.000209774 0.0999306)
(-0.000224305 0.00019665 0.0996697)
(-0.000201528 0.000157905 0.0979709)
(-0.00014988 9.18142e-05 0.0897805)
(0.000157057 8.92428e-05 0.0907916)
(0.000216134 0.000147356 0.0984635)
(0.000237253 0.000177014 0.0998777)
(0.000225334 0.000186537 0.100092)
(0.000208363 0.000191713 0.100122)
(0.000189065 0.000195 0.100125)
(0.000168697 0.000197278 0.100135)
(0.00014804 0.000198927 0.10016)
(0.0001275 0.000200108 0.100197)
(0.000107258 0.000200931 0.10024)
(8.7375e-05 0.00020147 0.100285)
(6.78292e-05 0.000201803 0.100326)
(4.85576e-05 0.000201987 0.100358)
(2.9476e-05 0.000202091 0.10038)
(1.05038e-05 0.000202165 0.10039)
(-8.43327e-06 0.000202251 0.100386)
(-2.74114e-05 0.000202365 0.100369)
(-4.65088e-05 0.000202504 0.100339)
(-6.58124e-05 0.000202637 0.100297)
(-8.54076e-05 0.000202717 0.100246)
(-0.000105362 0.000202671 0.100191)
(-0.000125684 0.000202398 0.100138)
(-0.000146304 0.000201756 0.100095)
(-0.000167015 0.000200562 0.100068)
(-0.000187398 0.000198576 0.100062)
(-0.000206667 0.000195353 0.100071)
(-0.000223571 0.000189955 0.100059)
(-0.000235494 0.000179834 0.0998687)
(-0.000214732 0.000149081 0.0984794)
(-0.000156267 8.96647e-05 0.0908127)
(0.000164215 8.3186e-05 0.0915903)
(0.000227995 0.000134367 0.0988071)
(0.000246951 0.000157927 0.0999951)
(0.000234106 0.000165219 0.100162)
(0.000216435 0.000169075 0.100174)
(0.000196666 0.00017142 0.100162)
(0.000175927 0.000172951 0.100157)
(0.000154852 0.000173944 0.100166)
(0.000133755 0.000174533 0.100188)
(0.000112798 0.000174816 0.10022)
(9.20439e-05 0.000174887 0.100255)
(7.15027e-05 0.000174831 0.100288)
(5.11412e-05 0.000174729 0.100316)
(3.09124e-05 0.000174646 0.100335)
(1.07591e-05 0.00017464 0.100343)
(-9.37318e-06 0.000174747 0.100339)
(-2.95387e-05 0.000174985 0.100323)
(-4.97932e-05 0.000175344 0.100296)
(-7.0191e-05 0.000175791 0.10026)
(-9.07792e-05 0.000176264 0.100219)
(-0.000111578 0.000176673 0.100176)
(-0.000132572 0.000176898 0.100139)
(-0.000153678 0.000176789 0.100114)
(-0.000174724 0.000176189 0.100107)
(-0.000195389 0.0001749 0.100119)
(-0.000215036 0.000172622 0.100143)
(-0.000232586 0.000168615 0.100148)
(-0.000245368 0.000160914 0.0999995)
(-0.000226646 0.000136583 0.098828)
(-0.000163298 8.43624e-05 0.0916099)
(0.000171031 7.45375e-05 0.0922129)
(0.000238349 0.000118464 0.0990505)
(0.000255326 0.00013701 0.100073)
(0.000241607 0.000142521 0.100207)
(0.000223261 0.000145322 0.100208)
(0.000203049 0.000146907 0.100189)
(0.000181991 0.000147841 0.100176)
(0.00016058 0.00014832 0.100175)
(0.000139057 0.000148457 0.100187)
(0.000117539 0.000148343 0.100208)
(9.60843e-05 0.000148073 0.100234)
(7.47093e-05 0.000147741 0.10026)
(5.34087e-05 0.000147431 0.100283)
(3.21622e-05 0.000147217 0.100298)
(1.09471e-05 0.000147155 0.100305)
(-1.02624e-05 0.000147282 0.100301)
(-3.14898e-05 0.000147612 0.100288)
(-5.27581e-05 0.000148132 0.100265)
(-7.40863e-05 0.000148802 0.100236)
(-9.54854e-05 0.00014955 0.100203)
(-0.000116952 0.00015028 0.100172)
(-0.000138455 0.000150861 0.100148)
(-0.000159927 0.00015116 0.100137)
(-0.000181244 0.000151028 0.100141)
(-0.000202165 0.000150325 0.100163)
(-0.000222214 0.000148822 0.100193)
(-0.000240397 0.000145951 0.100206)
(-0.00025403 0.000140176 0.100085)
(-0.000237193 0.000121062 0.0990732)
(-0.00017016 7.62018e-05 0.0922308)
(0.000177083 6.38552e-05 0.0926866)
(0.000247103 0.00010025 0.0992226)
(0.000262391 0.00011456 0.100123)
(0.000247872 0.000118617 0.100234)
(0.000228935 0.000120553 0.100229)
(0.000208328 0.000121549 0.100207)
(0.00018699 0.000122012 0.100189)
(0.000165302 0.000122106 0.100182)
(0.000143438 0.000121918 0.100187)
(0.000121477 0.000121534 0.100201)
(9.94573e-05 0.000121044 0.10022)
(7.7398e-05 0.00012054 0.10024)
(5.53092e-05 0.000120107 0.100258)
(3.31978e-05 0.000119817 0.10027)
(1.10693e-05 0.000119728 0.100275)
(-1.10672e-05 0.00011987 0.100272)
(-3.32031e-05 0.000120258 0.100261)
(-5.53262e-05 0.000120874 0.100242)
(-7.74239e-05 0.000121676 0.100219)
(-9.94801e-05 0.000122589 0.100195)
(-0.000121474 0.000123514 0.100173)
(-0.000143375 0.000124334 0.100159)
(-0.00016514 0.000124919 0.100156)
(-0.000186688 0.000125151 0.100168)
(-0.000207854 0.000124912 0.100194)
(-0.000228266 0.000124031 0.100226)
(-0.000247024 0.000122085 0.100241)
(-0.000261428 0.00011786 0.10014)
(-0.000246206 0.000103094 0.0992458)
(-0.000176343 6.57903e-05 0.0927032)
(0.000182145 5.15815e-05 0.0930364)
(0.000254201 8.02217e-05 0.0993416)
(0.000268129 9.08411e-05 0.100153)
(0.000252943 9.36861e-05 0.100248)
(0.000233506 9.49228e-05 0.100239)
(0.000212569 9.54424e-05 0.100216)
(0.000190991 9.55488e-05 0.100197)
(0.000169077 9.53619e-05 0.100187)
(0.000146941 9.49607e-05 0.100188)
(0.000124629 9.44165e-05 0.100196)
(0.00010216 9.38126e-05 0.100209)
(7.95522e-05 9.32311e-05 0.100225)
(5.68255e-05 9.27513e-05 0.100238)
(3.40073e-05 9.24393e-05 0.100248)
(1.11313e-05 9.23454e-05 0.100252)
(-1.17665e-05 9.25e-05 0.10025)
(-3.46435e-05 9.29119e-05 0.100241)
(-5.74598e-05 9.35638e-05 0.100226)
(-8.0174e-05 9.44139e-05 0.100209)
(-0.00010275 9.53923e-05 0.100191)
(-0.000125159 9.64089e-05 0.100176)
(-0.000147375 9.73578e-05 0.100169)
(-0.000169376 9.81306e-05 0.100171)
(-0.000191119 9.86263e-05 0.100186)
(-0.000212497 9.87492e-05 0.100213)
(-0.000233222 9.83664e-05 0.100244)
(-0.00025246 9.71622e-05 0.100261)
(-0.000267509 9.42058e-05 0.100173)
(-0.00025358 8.31802e-05 0.0993646)
(-0.000181566 5.36325e-05 0.0930521)
(0.000186078 3.81145e-05 0.0932821)
(0.000259599 5.88105e-05 0.09942)
(0.000272516 6.611e-05 0.10017)
(0.000256818 6.79121e-05 0.100253)
(0.000237 6.85698e-05 0.100243)
(0.000215805 6.87108e-05 0.100219)
(0.000194039 6.85481e-05 0.1002)
(0.000171945 6.81734e-05 0.100189)
(0.000149599 6.76488e-05 0.100187)
(0.000127015 6.70376e-05 0.100192)
(0.000104202 6.64069e-05 0.100201)
(8.11725e-05 6.58279e-05 0.100213)
(5.79551e-05 6.53644e-05 0.100224)
(3.4592e-05 6.50739e-05 0.100231)
(1.11368e-05 6.49964e-05 0.100235)
(-1.23474e-05 6.51582e-05 0.100232)
(-3.57965e-05 6.55641e-05 0.100225)
(-5.91433e-05 6.62e-05 0.100214)
(-8.23282e-05 6.70278e-05 0.100201)
(-0.000105301 6.79897e-05 0.100188)
(-0.000128025 6.90095e-05 0.100178)
(-0.000150483 7.00003e-05 0.100175)
(-0.000172667 7.08739e-05 0.100181)
(-0.000194565 7.15464e-05 0.100197)
(-0.000216112 7.19403e-05 0.100223)
(-0.000237078 7.19518e-05 0.100253)
(-0.00025668 7.13522e-05 0.10027)
(-0.000272216 6.94656e-05 0.100192)
(-0.000259244 6.17813e-05 0.099443)
(-0.00018566 4.01786e-05 0.0932973)
(0.000188789 2.3812e-05 0.0934379)
(0.000263272 3.64203e-05 0.0994667)
(0.000275523 4.06371e-05 0.100178)
(0.000259485 4.15121e-05 0.100253)
(0.000239413 4.1673e-05 0.100241)
(0.000218043 4.15046e-05 0.100218)
(0.000196145 4.1141e-05 0.100199)
(0.000173923 4.06471e-05 0.100187)
(0.000151425 4.00711e-05 0.100184)
(0.000128649 3.94627e-05 0.100187)
(0.000105591 3.88741e-05 0.100194)
(8.22637e-05 3.83566e-05 0.100204)
(5.86998e-05 3.79599e-05 0.100212)
(3.49528e-05 3.7723e-05 0.100219)
(1.10915e-05 3.76781e-05 0.100221)
(-1.28059e-05 3.78416e-05 0.10022)
(-3.66544e-05 3.82184e-05 0.100214)
(-6.03729e-05 3.87965e-05 0.100205)
(-8.38862e-05 3.95477e-05 0.100194)
(-0.000107135 4.04293e-05 0.100185)
(-0.00013008 4.13842e-05 0.100178)
(-0.000152708 4.23482e-05 0.100177)
(-0.000175023 4.32533e-05 0.100184)
(-0.00019703 4.40349e-05 0.100201)
(-0.000218693 4.46293e-05 0.100226)
(-0.000239818 4.49594e-05 0.100255)
(-0.000259657 4.487e-05 0.100272)
(-0.000275507 4.39243e-05 0.100201)
(-0.000263153 3.93308e-05 0.0994898)
(-0.000188516 2.58301e-05 0.0934529)
(0.000190217 9.0061e-06 0.0935128)
(0.000265194 1.34352e-05 0.0994872)
(0.000277129 1.47028e-05 0.100179)
(0.000260926 1.47181e-05 0.10025)
(0.000240731 1.44325e-05 0.100238)
(0.000219273 1.39986e-05 0.100214)
(0.000197303 1.34789e-05 0.100195)
(0.000175008 1.29119e-05 0.100183)
(0.00015242 1.23329e-05 0.100179)
(0.000129529 1.17758e-05 0.100182)
(0.000106327 1.12741e-05 0.100188)
(8.2825e-05 1.08601e-05 0.100196)
(5.90601e-05 1.05612e-05 0.100204)
(3.50912e-05 1.04015e-05 0.10021)
(1.09956e-05 1.03971e-05 0.100212)
(-1.31376e-05 1.05591e-05 0.10021)
(-3.72153e-05 1.08894e-05 0.100205)
(-6.11454e-05 1.13809e-05 0.100198)
(-8.4846e-05 1.20184e-05 0.100189)
(-0.000108253 1.27753e-05 0.10018)
(-0.000131325 1.36188e-05 0.100175)
(-0.000154049 1.45076e-05 0.100175)
(-0.000176437 1.53973e-05 0.100183)
(-0.000198502 1.62406e-05 0.1002)
(-0.00022022 1.69901e-05 0.100224)
(-0.000241419 1.75908e-05 0.100253)
(-0.000261364 1.79574e-05 0.100271)
(-0.000277356 1.78794e-05 0.100203)
(-0.000265277 1.62421e-05 0.0995106)
(-0.000190068 1.09504e-05 0.093528)
(0.000190328 -5.98481e-06 0.0935113)
(0.000265348 -9.76947e-06 0.0994842)
(0.000277313 -1.14087e-05 0.100175)
(0.000261124 -1.22288e-05 0.100246)
(0.000240935 -1.29408e-05 0.100233)
(0.000219477 -1.36195e-05 0.100209)
(0.0001975 -1.42745e-05 0.100189)
(0.000175188 -1.48904e-05 0.100177)
(0.000152573 -1.54485e-05 0.100173)
(0.000129647 -1.59304e-05 0.100175)
(0.000106403 -1.63219e-05 0.100182)
(8.28518e-05 -1.66137e-05 0.10019)
(5.90322e-05 -1.67986e-05 0.100198)
(3.50052e-05 -1.68725e-05 0.100204)
(1.08503e-05 -1.68318e-05 0.100206)
(-1.33418e-05 -1.66751e-05 0.100205)
(-3.74753e-05 -1.6401e-05 0.1002)
(-6.14568e-05 -1.60107e-05 0.100192)
(-8.5203e-05 -1.55079e-05 0.100183)
(-0.000108648 -1.48977e-05 0.100175)
(-0.00013175 -1.41908e-05 0.100169)
(-0.000154496 -1.34021e-05 0.10017)
(-0.000176896 -1.25526e-05 0.100178)
(-0.000198965 -1.16705e-05 0.100194)
(-0.000220678 -1.07878e-05 0.100219)
(-0.000241863 -9.93545e-06 0.100249)
(-0.000261787 -9.13284e-06 0.100266)
(-0.000277745 -8.36471e-06 0.100199)
(-0.000265602 -7.08399e-06 0.099508)
(-0.000190285 -4.11914e-06 0.0935268)
(0.000189116 -2.08444e-05 0.0934335)
(0.000263725 -3.28215e-05 0.0994578)
(0.000276066 -3.74099e-05 0.100166)
(0.000260067 -3.90836e-05 0.10024)
(0.000240014 -4.02301e-05 0.100226)
(0.000218643 -4.11582e-05 0.100202)
(0.00019672 -4.1949e-05 0.100181)
(0.000174447 -4.26149e-05 0.100169)
(0.000151871 -4.31518e-05 0.100166)
(0.000128992 -4.35587e-05 0.100169)
(0.000105808 -4.3842e-05 0.100176)
(8.23346e-05 -4.40132e-05 0.100186)
(5.86094e-05 -4.4087e-05 0.100195)
(3.4691e-05 -4.40773e-05 0.100201)
(1.06538e-05 -4.39949e-05 0.100204)
(-1.34165e-05 -4.38451e-05 0.100203)
(-3.74303e-05 -4.36292e-05 0.100197)
(-6.13008e-05 -4.33422e-05 0.100188)
(-8.49485e-05 -4.29746e-05 0.100177)
(-0.00010831 -4.25134e-05 0.100168)
(-0.000131346 -4.19446e-05 0.100161)
(-0.000154037 -4.12571e-05 0.10016)
(-0.00017639 -4.04489e-05 0.100168)
(-0.000198409 -3.95271e-05 0.100185)
(-0.000220057 -3.85073e-05 0.100211)
(-0.000241143 -3.73955e-05 0.100241)
(-0.000260918 -3.61411e-05 0.100259)
(-0.000276669 -3.45018e-05 0.10019)
(-0.000264126 -3.02512e-05 0.0994819)
(-0.000189168 -1.90438e-05 0.0934494)
(0.000186604 -3.52494e-05 0.0932749)
(0.000260327 -5.53419e-05 0.0994055)
(0.000273385 -6.30133e-05 0.100151)
(0.00025775 -6.56009e-05 0.100231)
(0.000237959 -6.72221e-05 0.100218)
(0.000216759 -6.8427e-05 0.100192)
(0.00019495 -6.93793e-05 0.100171)
(0.000172771 -7.01192e-05 0.100159)
(0.000150297 -7.06598e-05 0.100156)
(0.000127546 -7.10178e-05 0.100161)
(0.000104527 -7.12175e-05 0.100171)
(8.12614e-05 -7.12921e-05 0.100183)
(5.77828e-05 -7.12755e-05 0.100195)
(3.41425e-05 -7.11977e-05 0.100203)
(1.04049e-05 -7.10816e-05 0.100206)
(-1.33594e-05 -7.09409e-05 0.100205)
(-3.70752e-05 -7.07766e-05 0.100198)
(-6.06678e-05 -7.05803e-05 0.100187)
(-8.40706e-05 -7.03309e-05 0.100173)
(-0.000107227 -6.99982e-05 0.10016)
(-0.000130097 -6.95457e-05 0.10015)
(-0.00015266 -6.89377e-05 0.100147)
(-0.000174908 -6.81473e-05 0.100154)
(-0.000196827 -6.71614e-05 0.100171)
(-0.000218354 -6.5976e-05 0.100198)
(-0.000239259 -6.45693e-05 0.10023)
(-0.000258761 -6.28133e-05 0.100249)
(-0.000274134 -6.02276e-05 0.100174)
(-0.000260855 -5.28609e-05 0.0994298)
(-0.000186741 -3.34858e-05 0.0932913)
(0.000182846 -4.88588e-05 0.0930267)
(0.000255165 -7.69373e-05 0.0993218)
(0.000269279 -8.79302e-05 0.100127)
(0.00025417 -9.15435e-05 0.100217)
(0.000234763 -9.37104e-05 0.100205)
(0.000213813 -9.52482e-05 0.100179)
(0.000192171 -9.64106e-05 0.100157)
(0.000170138 -9.72735e-05 0.100146)
(0.000147827 -9.78682e-05 0.100146)
(0.000125287 -9.82262e-05 0.100154)
(0.000102542 -9.83922e-05 0.100168)
(7.96166e-05 -9.84154e-05 0.100184)
(5.65415e-05 -9.83463e-05 0.100199)
(3.33552e-05 -9.82279e-05 0.100209)
(1.01011e-05 -9.80934e-05 0.100214)
(-1.3169e-05 -9.7961e-05 0.100212)
(-3.64024e-05 -9.7835e-05 0.100203)
(-5.95476e-05 -9.77027e-05 0.100189)
(-8.25541e-05 -9.75354e-05 0.100171)
(-0.000105378 -9.72891e-05 0.100153)
(-0.000127985 -9.69081e-05 0.100138)
(-0.000150345 -9.63346e-05 0.100131)
(-0.000172434 -9.55165e-05 0.100134)
(-0.00019421 -9.44194e-05 0.10015)
(-0.000215565 -9.3017e-05 0.100178)
(-0.000236213 -9.12511e-05 0.100212)
(-0.000255321 -8.89071e-05 0.100231)
(-0.000270155 -8.52443e-05 0.100148)
(-0.000255806 -7.4504e-05 0.099346)
(-0.000183065 -4.70888e-05 0.0930436)
(0.000177928 -6.13004e-05 0.0926747)
(0.000248256 -9.71903e-05 0.0991982)
(0.000263757 -0.000111879 0.100089)
(0.000249324 -0.000116685 0.100195)
(0.000230412 -0.00011951 0.100185)
(0.000209779 -0.000121464 0.100159)
(0.000188352 -0.000122911 0.100139)
(0.00016651 -0.000123969 0.100131)
(0.000144428 -0.00012469 0.100135)
(0.000122186 -0.000125123 0.100149)
(9.98297e-05 -0.000125327 0.100169)
(7.73874e-05 -0.000125365 0.10019)
(5.48789e-05 -0.000125298 0.100209)
(3.23235e-05 -0.000125178 0.100222)
(9.74273e-06 -0.000125044 0.100228)
(-1.28423e-05 -0.00012492 0.100226)
(-3.54081e-05 -0.00012481 0.100215)
(-5.79288e-05 -0.000124703 0.100196)
(-8.03811e-05 -0.000124563 0.100173)
(-0.000102739 -0.000124339 0.100148)
(-0.000124976 -0.000123963 0.100127)
(-0.000147057 -0.000123356 0.100112)
(-0.000168935 -0.000122446 0.10011)
(-0.000190531 -0.000121171 0.100123)
(-0.000211676 -0.000119479 0.10015)
(-0.000232003 -0.000117265 0.100185)
(-0.000250608 -0.000114203 0.100204)
(-0.000264752 -0.00010927 0.100107)
(-0.000249007 -9.47478e-05 0.0992218)
(-0.000178235 -5.94564e-05 0.0926922)
(0.00017199 -7.21597e-05 0.0921991)
(0.000239634 -0.000115651 0.0990219)
(0.000256838 -0.000134592 0.100033)
(0.000243201 -0.000140833 0.10016)
(0.00022487 -0.000144476 0.100155)
(0.000204611 -0.000146948 0.100132)
(0.000183438 -0.000148777 0.100116)
(0.00016184 -0.000150122 0.100113)
(0.000140057 -0.000151065 0.100125)
(0.000118215 -0.000151668 0.100147)
(9.63772e-05 -0.000152004 0.100175)
(7.45689e-05 -0.00015214 0.100203)
(5.27965e-05 -0.000152146 0.100227)
(3.10539e-05 -0.000152072 0.100244)
(9.33108e-06 -0.000151963 0.100251)
(-1.23816e-05 -0.000151845 0.100248)
(-3.40924e-05 -0.000151724 0.100234)
(-5.581e-05 -0.000151589 0.100212)
(-7.75405e-05 -0.000151407 0.100182)
(-9.92848e-05 -0.000151122 0.100149)
(-0.00012103 -0.000150661 0.100118)
(-0.000142743 -0.000149933 0.100094)
(-0.000164353 -0.000148848 0.100082)
(-0.000185734 -0.000147315 0.100088)
(-0.000206644 -0.000145245 0.100111)
(-0.000226606 -0.000142478 0.100144)
(-0.000244626 -0.000138528 0.100161)
(-0.000257963 -0.000132049 0.100046)
(-0.000240512 -0.000113139 0.099044)
(-0.00017241 -7.01388e-05 0.0922173)
(0.000165259 -8.09653e-05 0.0915749)
(0.000229358 -0.000131809 0.0987747)
(0.000248534 -0.000155797 0.0999488)
(0.000235763 -0.000163804 0.100107)
(0.000218085 -0.000168447 0.100112)
(0.000198243 -0.000171597 0.100095)
(0.000177357 -0.000173922 0.100088)
(0.000156059 -0.000175671 0.100096)
(0.000134671 -0.000176949 0.100119)
(0.000113356 -0.000177841 0.100152)
(9.21878e-05 -0.00017842 0.100189)
(7.11827e-05 -0.000178757 0.100224)
(5.03201e-05 -0.000178911 0.100254)
(2.95648e-05 -0.000178939 0.100274)
(8.87299e-06 -0.000178882 0.100283)
(-1.17937e-05 -0.000178765 0.10028)
(-3.2475e-05 -0.000178603 0.100264)
(-5.3212e-05 -0.000178382 0.100237)
(-7.40438e-05 -0.000178074 0.100201)
(-9.50057e-05 -0.000177627 0.100159)
(-0.000116113 -0.000176971 0.100116)
(-0.00013734 -0.000176015 0.100078)
(-0.000158604 -0.000174651 0.100054)
(-0.000179732 -0.000172767 0.100047)
(-0.000200399 -0.000170221 0.100061)
(-0.000219971 -0.000166755 0.100087)
(-0.000237354 -0.000161728 0.100096)
(-0.000249824 -0.00015334 0.0999535)
(-0.00023041 -0.000129181 0.0987936)
(-0.000165861 -7.86434e-05 0.0915935)
(0.000158171 -8.71321e-05 0.0907744)
(0.000217529 -0.000145056 0.0984275)
(0.000238844 -0.000175201 0.0998247)
(0.000226973 -0.00018542 0.100029)
(0.000209966 -0.000191321 0.100051)
(0.000190557 -0.000195319 0.10005)
(0.000170005 -0.00019828 0.100058)
(0.000149097 -0.00020056 0.100083)
(0.000128239 -0.000202311 0.100121)
(0.000107622 -0.000203625 0.100168)
(8.73093e-05 -0.000204575 0.100215)
(6.72909e-05 -0.000205216 0.100258)
(4.75122e-05 -0.000205602 0.100293)
(2.78969e-05 -0.000205783 0.100316)
(8.38217e-06 -0.0002058 0.100327)
(-1.10986e-05 -0.000205687 0.100323)
(-3.0604e-05 -0.000205452 0.100306)
(-5.01955e-05 -0.000205088 0.100276)
(-6.99493e-05 -0.000204567 0.100233)
(-8.99368e-05 -0.000203847 0.100182)
(-0.000110215 -0.000202869 0.100126)
(-0.000130788 -0.000201555 0.100072)
(-0.000151583 -0.000199795 0.100029)
(-0.000172393 -0.000197451 0.100003)
(-0.000192794 -0.00019432 0.0999982)
(-0.000211999 -0.000190013 0.100009)
(-0.000228753 -0.000183658 0.100001)
(-0.000240351 -0.000172892 0.0998171)
(-0.000218844 -0.000142293 0.0984405)
(-0.000159078 -8.43761e-05 0.0907929)
(0.00015146 -9.03279e-05 0.089741)
(0.000204172 -0.000154673 0.0979258)
(0.000227644 -0.000192438 0.0996391)
(0.000216648 -0.000205435 0.0999163)
(0.000200344 -0.000212939 0.0999725)
(0.000181403 -0.000217992 0.0999978)
(0.000161264 -0.000221748 0.100031)
(0.00014089 -0.00022471 0.100078)
(0.000120766 -0.000227087 0.100136)
(0.000101077 -0.000228973 0.100197)
(8.1849e-05 -0.000230422 0.100255)
(6.30164e-05 -0.00023147 0.100305)
(4.44735e-05 -0.000232159 0.100343)
(2.61235e-05 -0.000232536 0.100369)
(7.87553e-06 -0.00023265 0.10038)
(-1.03317e-05 -0.000232537 0.100377)
(-2.85584e-05 -0.000232207 0.100359)
(-4.68783e-05 -0.000231652 0.100327)
(-6.53801e-05 -0.000230841 0.10028)
(-8.41788e-05 -0.000229738 0.100221)
(-0.000103384 -0.000228302 0.100153)
(-0.000123063 -0.000226478 0.100082)
(-0.000143184 -0.000224181 0.100015)
(-0.000163545 -0.000221251 0.0999621)
(-0.000183638 -0.00021742 0.0999284)
(-0.000202475 -0.000212107 0.0999097)
(-0.000218616 -0.000204113 0.0998682)
(-0.000229417 -0.0001904 0.0996137)
(-0.000205851 -0.000151809 0.097929)
(-0.000152829 -8.70353e-05 0.0897579)
(0.000144979 -9.02159e-05 0.0883681)
(0.000189008 -0.000159837 0.0971719)
(0.000214527 -0.000206619 0.0993554)
(0.0002045 -0.000223254 0.0997587)
(0.000188944 -0.000232883 0.0998754)
(0.000170527 -0.000239274 0.0999432)
(0.000150944 -0.000244038 0.100011)
(0.000131348 -0.000247879 0.100086)
(0.000112272 -0.000251071 0.100165)
(9.38374e-05 -0.000253693 0.100241)
(7.59694e-05 -0.000255767 0.100308)
(5.85233e-05 -0.000257308 0.100363)
(4.13504e-05 -0.000258348 0.100403)
(2.43259e-05 -0.000258951 0.100429)
(7.37844e-06 -0.000259174 0.100441)
(-9.53553e-06 -0.00025906 0.100439)
(-2.64509e-05 -0.000258624 0.100422)
(-4.34153e-05 -0.000257846 0.100389)
(-6.05183e-05 -0.000256687 0.100341)
(-7.78986e-05 -0.000255108 0.100277)
(-9.57248e-05 -0.000253073 0.100199)
(-0.000114156 -0.000250574 0.100111)
(-0.000133268 -0.000247544 0.100019)
(-0.000152931 -0.000243859 0.099932)
(-0.000172586 -0.000239151 0.0998578)
(-0.000191045 -0.00023261 0.0997911)
(-0.000206597 -0.000222531 0.0996858)
(-0.000216578 -0.000205022 0.0993065)
(-0.000191164 -0.000157032 0.0971597)
(-0.000146996 -8.63402e-05 0.0883794)
(0.000138566 -8.89313e-05 0.086531)
(0.000172168 -0.000156432 0.0959817)
(0.000199057 -0.000215998 0.0989056)
(0.000190054 -0.000238075 0.09954)
(0.000175128 -0.000250229 0.0997579)
(0.000157254 -0.000258274 0.0998844)
(0.000138493 -0.000264336 0.0999946)
(0.000120153 -0.000269351 0.100102)
(0.000102666 -0.000273617 0.100203)
(8.59599e-05 -0.000277178 0.100292)
(6.98023e-05 -0.000280002 0.100365)
(5.39633e-05 -0.000282097 0.100422)
(3.82543e-05 -0.000283525 0.100462)
(2.25793e-05 -0.000284366 0.100488)
(6.90772e-06 -0.000284706 0.1005)
(-8.75174e-06 -0.000284596 0.100499)
(-2.43716e-05 -0.000284045 0.100483)
(-3.99479e-05 -0.000283027 0.100453)
(-5.55322e-05 -0.000281486 0.100406)
(-7.12446e-05 -0.000279349 0.100341)
(-8.73018e-05 -0.000276585 0.100256)
(-0.000103961 -0.000273181 0.100154)
(-0.000121474 -0.000269159 0.100037)
(-0.000139919 -0.000264423 0.0999129)
(-0.000158847 -0.000258582 0.0997889)
(-0.000176935 -0.000250575 0.0996552)
(-0.000192048 -0.000238073 0.0994416)
(-0.000201279 -0.000215097 0.0988286)
(-0.000174835 -0.000153912 0.0959479)
(-0.000141346 -8.47695e-05 0.0865329)
(0.00014283 -5.86617e-05 0.0839791)
(0.000151658 -0.000147301 0.0939612)
(0.000179355 -0.000223484 0.0981409)
(0.000171874 -0.000248557 0.0992143)
(0.000156823 -0.000263198 0.099575)
(0.000139386 -0.000273255 0.0997756)
(0.000122272 -0.000281096 0.0999404)
(0.000106269 -0.000287712 0.100087)
(9.13652e-05 -0.000293347 0.100211)
(7.71562e-05 -0.000297993 0.100313)
(6.32211e-05 -0.00030163 0.100392)
(4.92618e-05 -0.000304306 0.100451)
(3.51493e-05 -0.000306131 0.100491)
(2.08587e-05 -0.00030723 0.100517)
(6.44784e-06 -0.000307696 0.100529)
(-7.97621e-06 -0.000307589 0.100529)
(-2.2308e-05 -0.000306924 0.100515)
(-3.64574e-05 -0.000305654 0.100487)
(-5.03736e-05 -0.000303708 0.100442)
(-6.41132e-05 -0.000300987 0.100378)
(-7.78471e-05 -0.000297405 0.100289)
(-9.19053e-05 -0.000292927 0.100175)
(-0.000106742 -0.000287592 0.100033)
(-0.000122791 -0.000281364 0.099867)
(-0.000140093 -0.000273932 0.0996813)
(-0.000157802 -0.00026414 0.0994634)
(-0.000173287 -0.00024941 0.0990957)
(-0.000181285 -0.000223496 0.0980363)
(-0.000154471 -0.000145524 0.0939032)