/*--------------------------------*- C++ -*----------------------------------*\
| =========                 |                                                 |
| \\      /  F ield         | OpenFOAM: The Open Source CFD Toolbox           |
|  \\    /   O peration     | Version:  2312                                  |
|   \\  /    A nd           | Website:  www.openfoam.com                      |
|    \\/     M anipulation  |                                                 |
\*---------------------------------------------------------------------------*/
FoamFile
{
    version     2.0;
    format      ascii;
    arch        "LSB;label=32;scalar=64";
    class       volScalarField;
    location    "500";
    object      alphat;
}
// * * * * * * * * * * * * * * * * * * * * * * * * * * * * * * * * * * * * * //

dimensions      [1 -1 -1 0 0 0 0];

internalField   nonuniform List<scalar> 
27000
(
0.0039517
0.00670593
0.00936299
0.0117393
0.014048
0.0162023
0.0181577
0.0198089
0.0212288
0.0224414
0.0234417
0.0242335
0.0248245
0.0252174
0.0254136
0.0254137
0.0252177
0.0248251
0.0242343
0.0234426
0.0224422
0.0212297
0.0198098
0.0181586
0.0162031
0.0140486
0.0117396
0.00936294
0.00670569
0.00395152
0.00575228
0.00128148
0.00515914
0.0090777
0.0131628
0.0170435
0.0207096
0.0241188
0.0272064
0.0299519
0.0323372
0.0343239
0.0358596
0.0369048
0.0374337
0.0374336
0.0369044
0.0358591
0.0343235
0.0323374
0.0299531
0.0272082
0.0241207
0.0207111
0.0170442
0.0131629
0.00907762
0.00515927
0.00128162
0.0057521
0.0092274
0.00713911
0.0145115
0.0261319
0.0368659
0.0462356
0.0548049
0.0628394
0.0701561
0.0766194
0.0821579
0.0867088
0.0901928
0.0925484
0.093736
0.0937353
0.0925466
0.0901903
0.0867067
0.0821582
0.0766239
0.0701634
0.0628469
0.05481
0.0462367
0.0368631
0.0261284
0.0145111
0.00713835
0.00922724
0.0121558
0.0108401
0.0260474
0.0526255
0.0782491
0.0963653
0.109863
0.120925
0.130265
0.13804
0.144428
0.149511
0.153311
0.155841
0.157105
0.157104
0.155839
0.153309
0.149509
0.14443
0.138047
0.130275
0.120936
0.109869
0.0963636
0.0782405
0.0526174
0.0260476
0.0108403
0.0121557
0.0149206
0.014476
0.0368713
0.0761968
0.113317
0.139175
0.156017
0.167838
0.176768
0.183278
0.188307
0.192214
0.195076
0.196955
0.197887
0.197887
0.196954
0.195074
0.192213
0.188307
0.183277
0.176773
0.167846
0.156021
0.139174
0.113309
0.0761931
0.0368734
0.0144767
0.0149208
0.0174813
0.0184159
0.0477086
0.0952547
0.137847
0.167234
0.185425
0.196814
0.20434
0.20945
0.213038
0.215616
0.217423
0.218579
0.219144
0.219144
0.218578
0.217421
0.215616
0.21304
0.209454
0.204346
0.196822
0.185433
0.167242
0.13785
0.0952596
0.0477142
0.0184172
0.0174816
0.0198139
0.0225624
0.0585973
0.111522
0.155768
0.185119
0.202852
0.213221
0.219372
0.223126
0.225496
0.227037
0.22804
0.228653
0.228945
0.228944
0.228652
0.22804
0.227038
0.225498
0.223131
0.219379
0.213229
0.202861
0.185127
0.155775
0.111531
0.0586044
0.0225639
0.0198142
0.021899
0.026761
0.0691472
0.125614
0.169854
0.197346
0.213366
0.222265
0.227115
0.229757
0.231216
0.23204
0.232513
0.232775
0.232894
0.232894
0.232775
0.232513
0.232041
0.231219
0.229762
0.227121
0.222273
0.213373
0.197353
0.169862
0.125623
0.0691537
0.0267625
0.0218993
0.0237125
0.0308858
0.0790058
0.137692
0.180981
0.206063
0.219985
0.2273
0.230973
0.232741
0.233556
0.233915
0.234065
0.234124
0.234144
0.234144
0.234124
0.234066
0.233917
0.233559
0.232745
0.230978
0.227306
0.219991
0.206068
0.180986
0.137699
0.0790107
0.0308871
0.0237125
0.0252669
0.0347766
0.087945
0.14781
0.188844
0.212112
0.224218
0.230144
0.232847
0.233959
0.234337
0.23441
0.234378
0.23433
0.234301
0.234301
0.234331
0.234379
0.234411
0.23434
0.233962
0.232851
0.230149
0.224222
0.212115
0.188847
0.147814
0.0879481
0.0347775
0.0252668
0.0265627
0.0382792
0.0957499
0.156283
0.195385
0.216556
0.227021
0.231793
0.233739
0.234379
0.234474
0.23438
0.234256
0.234158
0.234108
0.234108
0.234159
0.234257
0.234382
0.234476
0.234382
0.233743
0.231796
0.227024
0.216558
0.195386
0.156284
0.0957514
0.03828
0.0265623
0.0275993
0.0412579
0.102205
0.163044
0.200482
0.219837
0.228924
0.232779
0.23416
0.234474
0.234391
0.234208
0.234042
0.233928
0.233872
0.233872
0.233928
0.234043
0.234209
0.234392
0.234476
0.234163
0.232781
0.228925
0.219837
0.200482
0.163044
0.102206
0.0412586
0.0275988
0.0283767
0.0435977
0.107163
0.168115
0.204197
0.222148
0.230191
0.233373
0.234358
0.234458
0.234268
0.234041
0.233861
0.233746
0.233692
0.233692
0.233747
0.233862
0.234042
0.23427
0.234459
0.23436
0.233374
0.230192
0.222148
0.204197
0.168116
0.107163
0.0435985
0.028376
0.0288951
0.0452086
0.11052
0.17151
0.206621
0.223617
0.230968
0.233713
0.234449
0.23442
0.234173
0.233926
0.233744
0.233633
0.233581
0.233581
0.233633
0.233745
0.233927
0.234174
0.234421
0.23445
0.233713
0.230968
0.223617
0.206621
0.171512
0.110521
0.0452096
0.0288943
0.0291544
0.0460291
0.112212
0.173202
0.207813
0.224329
0.231337
0.233867
0.234484
0.234395
0.234123
0.233869
0.233688
0.233579
0.23353
0.23353
0.23358
0.233689
0.23387
0.234124
0.234396
0.234485
0.233868
0.231337
0.224329
0.207814
0.173205
0.112213
0.0460302
0.0291536
0.0291546
0.0460285
0.11221
0.1732
0.207812
0.224328
0.231336
0.233867
0.234483
0.234394
0.234122
0.233868
0.233686
0.233578
0.233528
0.233529
0.233578
0.233687
0.233869
0.234123
0.234395
0.234484
0.233867
0.231336
0.224328
0.207812
0.173203
0.112211
0.0460296
0.0291539
0.0288958
0.0452068
0.110514
0.171504
0.206617
0.223615
0.230966
0.233711
0.234446
0.234417
0.23417
0.233922
0.23374
0.233628
0.233576
0.233576
0.233628
0.23374
0.233923
0.234171
0.234418
0.234448
0.233712
0.230967
0.223615
0.206617
0.171506
0.110515
0.0452079
0.0288951
0.028378
0.0435948
0.107153
0.168106
0.204191
0.222144
0.230188
0.23337
0.234355
0.234453
0.234263
0.234035
0.233854
0.233738
0.233684
0.233684
0.233739
0.233855
0.234036
0.234265
0.234455
0.234357
0.233372
0.23019
0.222145
0.204192
0.168107
0.107154
0.0435958
0.0283774
0.027601
0.0412543
0.102192
0.163032
0.200474
0.219832
0.22892
0.232775
0.234156
0.234469
0.234384
0.234199
0.234032
0.233918
0.233861
0.233862
0.233918
0.234033
0.234201
0.234386
0.234472
0.234159
0.232778
0.228923
0.219834
0.200475
0.163033
0.102194
0.0412553
0.0276006
0.0265647
0.0382754
0.0957348
0.156268
0.195375
0.21655
0.227017
0.231789
0.233735
0.234373
0.234466
0.234371
0.234244
0.234146
0.234095
0.234096
0.234147
0.234246
0.234373
0.234469
0.234377
0.233739
0.231793
0.227021
0.216554
0.195379
0.156271
0.0957372
0.0382764
0.0265645
0.0252692
0.034773
0.0879291
0.147794
0.188833
0.212104
0.224212
0.230139
0.232842
0.233952
0.234328
0.234399
0.234366
0.234317
0.234287
0.234287
0.234317
0.234367
0.234402
0.234332
0.233957
0.232847
0.230146
0.224219
0.212111
0.188839
0.1478
0.0879333
0.0347741
0.0252692
0.0237148
0.0308829
0.0789903
0.137675
0.180967
0.206053
0.219978
0.227294
0.230966
0.232734
0.233547
0.233904
0.234052
0.234109
0.234128
0.234128
0.23411
0.234053
0.233906
0.233551
0.232739
0.230973
0.227301
0.219986
0.206061
0.180975
0.137684
0.0789965
0.0308841
0.0237151
0.0219014
0.0267593
0.0691335
0.125596
0.169838
0.197332
0.213355
0.222256
0.227106
0.229748
0.231205
0.232027
0.232498
0.232759
0.232877
0.232877
0.23276
0.232499
0.232029
0.231209
0.229753
0.227113
0.222264
0.213363
0.197342
0.16985
0.125609
0.0691416
0.0267605
0.0219019
0.0198159
0.0225622
0.0585853
0.111501
0.155744
0.185098
0.202835
0.213207
0.219359
0.223114
0.225482
0.227021
0.228022
0.228633
0.228925
0.228925
0.228633
0.228023
0.227022
0.225485
0.223119
0.219366
0.213214
0.202843
0.185108
0.155756
0.111515
0.0585945
0.0225635
0.0198163
0.0174831
0.0184164
0.0476968
0.0952286
0.137815
0.167208
0.1854
0.196792
0.20432
0.209431
0.213018
0.215593
0.217397
0.218552
0.219116
0.219116
0.218551
0.217397
0.215594
0.21302
0.209436
0.204326
0.196799
0.185406
0.167216
0.137821
0.095239
0.047705
0.0184174
0.0174834
0.014922
0.0144775
0.0368617
0.0761672
0.113277
0.139138
0.155983
0.167808
0.176738
0.18325
0.188274
0.192178
0.195037
0.196914
0.197845
0.197845
0.196913
0.195036
0.192179
0.188276
0.18325
0.176744
0.167815
0.155985
0.139134
0.113271
0.076168
0.0368663
0.0144778
0.0149222
0.0121568
0.0108424
0.0260418
0.0526
0.0782157
0.0963293
0.109826
0.120887
0.130225
0.137999
0.144382
0.14946
0.153257
0.155783
0.157045
0.157044
0.155781
0.153255
0.14946
0.144386
0.138007
0.130237
0.120899
0.109833
0.0963269
0.0782066
0.0525937
0.0260435
0.010842
0.0121568
0.00922805
0.00714084
0.0145115
0.0261233
0.0368512
0.0462158
0.0547819
0.0628126
0.0701256
0.0765851
0.0821182
0.0866632
0.0901425
0.0924937
0.0936789
0.0936782
0.0924915
0.0901394
0.0866606
0.082118
0.0765898
0.0701331
0.0628204
0.0547875
0.0462176
0.0368489
0.0261205
0.0145116
0.0071394
0.00922788
0.00575252
0.00128168
0.00516006
0.00907852
0.0131631
0.0170432
0.0207087
0.0241169
0.0272033
0.0299474
0.0323298
0.0343144
0.0358488
0.036893
0.0374214
0.0374212
0.0368924
0.0358479
0.0343135
0.0323295
0.0299482
0.0272045
0.024118
0.0207094
0.0170434
0.0131628
0.00907841
0.0051602
0.00128184
0.00575234
0.00395198
0.00670659
0.00936406
0.0117409
0.01405
0.0162048
0.0181607
0.0198123
0.0212327
0.0224457
0.023447
0.0242393
0.0248304
0.0252235
0.0254197
0.0254198
0.0252238
0.0248311
0.0242401
0.023448
0.0224466
0.0212337
0.0198134
0.0181617
0.0162057
0.0140506
0.0117411
0.00936391
0.00670624
0.00395172
0.00356002
0.00608674
0.00869351
0.0110699
0.0134477
0.0156954
0.0177662
0.0195396
0.0210748
0.0223984
0.02352
0.024431
0.0251178
0.0255767
0.0258064
0.0258062
0.0255761
0.0251167
0.0244295
0.0235181
0.0223965
0.0210726
0.019537
0.0177628
0.0156925
0.0134458
0.0110693
0.00869422
0.00608816
0.00356103
0.00511863
0.00160965
0.00745378
0.011024
0.0146047
0.0176157
0.0202032
0.0226039
0.0246927
0.0264776
0.0279533
0.0291229
0.0299991
0.0305845
0.030878
0.0308786
0.0305861
0.0300014
0.0291252
0.0279547
0.0264771
0.0246908
0.0226012
0.0202012
0.0176158
0.0146071
0.0110278
0.00745805
0.00161069
0.00512015
0.00868361
0.0102059
0.0132353
0.0167085
0.0218675
0.0273006
0.0323116
0.0366913
0.0406916
0.0442707
0.0473217
0.0497793
0.0516479
0.0529007
0.0535253
0.0535269
0.0529053
0.0516567
0.0497902
0.0473293
0.0442649
0.0406786
0.0366769
0.0323022
0.0272979
0.0218702
0.0167124
0.0132395
0.0102182
0.00868492
0.0115688
0.013418
0.017907
0.025704
0.0359968
0.0466372
0.0560631
0.0642541
0.0715194
0.0780416
0.0836595
0.0881982
0.0916102
0.0938762
0.0950058
0.0950116
0.0938935
0.0916388
0.0882338
0.0836934
0.078063
0.071519
0.0642448
0.0560497
0.0466238
0.0359885
0.025712
0.0179093
0.0134273
0.0115692
0.0144254
0.0158914
0.0227858
0.0359303
0.0545013
0.0739234
0.0900033
0.102505
0.112672
0.121427
0.128605
0.134184
0.138269
0.140877
0.142147
0.142151
0.140892
0.138299
0.134219
0.128635
0.121445
0.112668
0.102481
0.0899598
0.0738757
0.0544809
0.0359309
0.0227792
0.0158971
0.0144246
0.0171427
0.0181069
0.0285862
0.0470953
0.0734934
0.100091
0.12222
0.138139
0.149683
0.158504
0.165315
0.170447
0.174119
0.176467
0.177608
0.17761
0.176474
0.174132
0.17046
0.165322
0.158498
0.149661
0.138103
0.122162
0.10003
0.0734489
0.047076
0.0285721
0.0181091
0.0171415
0.0196559
0.020541
0.0339349
0.058302
0.0909803
0.122482
0.146877
0.164155
0.176126
0.184564
0.190621
0.194953
0.197944
0.199823
0.200728
0.200728
0.199825
0.197947
0.194954
0.190615
0.184549
0.176102
0.164122
0.146834
0.122429
0.0909421
0.0582841
0.0339181
0.0205387
0.0196545
0.021959
0.0230243
0.039023
0.0688775
0.106048
0.139785
0.164784
0.182111
0.193748
0.201523
0.206751
0.21027
0.212584
0.21399
0.214655
0.214655
0.213989
0.212582
0.210265
0.206741
0.201506
0.193726
0.182085
0.164754
0.139756
0.10603
0.0688721
0.03901
0.0230224
0.0219576
0.0240587
0.0253387
0.0439035
0.0788024
0.119013
0.153201
0.177774
0.194373
0.205196
0.212125
0.21653
0.219315
0.221043
0.222045
0.222506
0.222506
0.222044
0.221039
0.219308
0.216519
0.212111
0.205179
0.194354
0.177756
0.153188
0.119011
0.0788056
0.0438956
0.0253378
0.0240576
0.0258986
0.0274211
0.0483361
0.0874839
0.130187
0.163776
0.187296
0.20278
0.212576
0.218603
0.222237
0.224394
0.225645
0.22633
0.226631
0.226631
0.226328
0.225642
0.224388
0.222229
0.218592
0.212564
0.202768
0.187286
0.163771
0.130188
0.0874906
0.0483335
0.0274215
0.0258979
0.0274577
0.0292366
0.0521966
0.0946572
0.138556
0.171758
0.194209
0.208543
0.217317
0.2225
0.225464
0.227108
0.22799
0.228436
0.22862
0.22862
0.228434
0.227987
0.227104
0.225458
0.222493
0.217311
0.208538
0.194206
0.171759
0.138563
0.0946649
0.0521988
0.029238
0.0274572
0.0287211
0.0307484
0.0554198
0.100406
0.144914
0.177631
0.199129
0.212454
0.220342
0.224813
0.227235
0.228485
0.229095
0.22937
0.229473
0.229473
0.229369
0.229093
0.228483
0.227232
0.22481
0.22034
0.212454
0.199133
0.177637
0.144924
0.100413
0.0554251
0.0307505
0.0287209
0.0296779
0.0319211
0.0579331
0.10478
0.149577
0.181799
0.20251
0.215031
0.222228
0.226156
0.228177
0.229144
0.229566
0.229727
0.229777
0.229776
0.229726
0.229565
0.229143
0.228176
0.226156
0.222229
0.215035
0.202518
0.18181
0.149589
0.104787
0.0579398
0.0319235
0.0296778
0.0303199
0.0327239
0.0596591
0.107755
0.152667
0.184493
0.204637
0.216601
0.223326
0.226892
0.22865
0.229437
0.229741
0.229834
0.229852
0.229852
0.229834
0.229741
0.229437
0.228651
0.226894
0.223331
0.216607
0.204647
0.184505
0.15268
0.107761
0.0596661
0.0327262
0.0303198
0.030642
0.0331352
0.0605417
0.109254
0.154209
0.185818
0.205667
0.217345
0.223833
0.227217
0.228846
0.229546
0.229795
0.229855
0.229859
0.229859
0.229855
0.229795
0.229547
0.228848
0.22722
0.223838
0.217353
0.205677
0.185831
0.154222
0.109261
0.060548
0.0331369
0.0306419
0.0306419
0.0331358
0.0605426
0.109255
0.15421
0.185819
0.205667
0.217345
0.223834
0.227218
0.228847
0.229547
0.229796
0.229857
0.229861
0.229861
0.229857
0.229797
0.229548
0.228849
0.227221
0.223839
0.217353
0.205678
0.185832
0.154223
0.109262
0.0605488
0.0331375
0.0306418
0.0303196
0.0327257
0.0596618
0.107757
0.152669
0.184494
0.204638
0.216602
0.223329
0.226894
0.228653
0.229441
0.229746
0.229839
0.229858
0.229858
0.229839
0.229746
0.229442
0.228654
0.226897
0.223333
0.216609
0.204648
0.184506
0.152683
0.107766
0.0596687
0.0327278
0.0303193
0.0296775
0.0319239
0.0579374
0.104785
0.149581
0.181801
0.202512
0.215033
0.222231
0.22616
0.228183
0.229151
0.229574
0.229736
0.229786
0.229786
0.229735
0.229573
0.22915
0.228182
0.22616
0.222232
0.215037
0.202519
0.181812
0.149594
0.104796
0.0579443
0.0319262
0.029677
0.0287206
0.0307521
0.0554255
0.100413
0.144919
0.177632
0.199131
0.212455
0.220345
0.224817
0.227242
0.228494
0.229105
0.229381
0.229485
0.229485
0.22938
0.229103
0.228491
0.227239
0.224814
0.220342
0.212455
0.199133
0.177639
0.14493
0.100425
0.0554312
0.0307541
0.0287199
0.0274569
0.029241
0.0522033
0.0946662
0.138561
0.171759
0.194208
0.208543
0.217319
0.222504
0.225471
0.227118
0.228002
0.228449
0.228635
0.228634
0.228448
0.227999
0.227114
0.225465
0.222498
0.217313
0.208538
0.194205
0.17176
0.13857
0.0946796
0.0522061
0.0292423
0.0274559
0.0258976
0.0274258
0.0483427
0.0874932
0.13019
0.163775
0.187293
0.202777
0.212576
0.218605
0.222243
0.224404
0.225658
0.226344
0.226647
0.226646
0.226342
0.225654
0.224398
0.222235
0.218595
0.212564
0.202766
0.187283
0.163771
0.130195
0.0875061
0.0483414
0.0274262
0.0258963
0.0240575
0.0253434
0.043909
0.07881
0.119016
0.153197
0.177767
0.194367
0.205193
0.212125
0.216534
0.219324
0.221055
0.22206
0.222521
0.222521
0.222058
0.221051
0.219317
0.216525
0.212112
0.205177
0.194349
0.17775
0.153185
0.119019
0.0788196
0.0439032
0.0253427
0.0240558
0.0219577
0.0230285
0.0390265
0.0688803
0.106042
0.139773
0.164771
0.1821
0.19374
0.20152
0.206754
0.210278
0.212595
0.214003
0.214669
0.214669
0.214002
0.212593
0.210273
0.206744
0.201505
0.193721
0.182076
0.164743
0.139746
0.106029
0.0688799
0.0390157
0.0230268
0.0219558
0.0196551
0.0205439
0.0339365
0.0582984
0.090963
0.122459
0.146856
0.164138
0.176115
0.184559
0.190623
0.194961
0.197956
0.199835
0.200741
0.200741
0.199837
0.197958
0.194961
0.190618
0.184545
0.176093
0.164108
0.146816
0.12241
0.0909276
0.0582826
0.0339211
0.0205417
0.0196534
0.0171419
0.0181071
0.02859
0.0470891
0.0734701
0.100059
0.12219
0.138118
0.149671
0.1585
0.165321
0.17046
0.174134
0.176482
0.177622
0.177624
0.176489
0.174147
0.170472
0.165327
0.158495
0.149651
0.138084
0.122136
0.1
0.0734257
0.0470689
0.0285759
0.0181095
0.0171405
0.0144244
0.0158925
0.0227894
0.035933
0.0544844
0.07389
0.0899732
0.102489
0.112668
0.121432
0.128622
0.134207
0.138294
0.140899
0.142168
0.142173
0.140914
0.138324
0.134242
0.128653
0.121452
0.112666
0.102467
0.0899304
0.073842
0.0544596
0.0359274
0.0227816
0.0158981
0.0144234
0.0115683
0.0134197
0.0179073
0.0257083
0.0359847
0.0466229
0.0560528
0.06425
0.0715221
0.0780545
0.083677
0.088218
0.0916322
0.093903
0.0950363
0.0950427
0.0939228
0.0916645
0.0882582
0.0837156
0.0780793
0.0715248
0.0642427
0.0560391
0.0466074
0.0359721
0.0257119
0.0179079
0.0134284
0.0115686
0.0086837
0.010209
0.0132366
0.0167117
0.021871
0.0273055
0.0323158
0.0366968
0.0406985
0.0442787
0.0473272
0.0497854
0.0516563
0.0529187
0.0535491
0.0535508
0.0529252
0.0516674
0.0497994
0.0473401
0.044275
0.0406875
0.0366839
0.0323065
0.0273016
0.0218717
0.0167135
0.0132395
0.0102197
0.00868491
0.00511877
0.00161024
0.00745554
0.0110259
0.0146059
0.0176174
0.020209
0.0226108
0.0247006
0.0264867
0.0279651
0.0291366
0.0300139
0.0306002
0.030894
0.0308945
0.0306015
0.0300157
0.0291383
0.027966
0.0264858
0.0246986
0.0226085
0.0202074
0.0176184
0.014609
0.01103
0.00745989
0.00161156
0.00512024
0.00356
0.00608651
0.00869276
0.0110685
0.0134457
0.0156929
0.0177636
0.0195378
0.0210731
0.0223966
0.0235167
0.0244275
0.0251143
0.0255732
0.0258029
0.0258027
0.0255726
0.0251131
0.0244259
0.0235147
0.0223947
0.021071
0.0195353
0.0177605
0.0156903
0.0134439
0.0110681
0.00869356
0.00608789
0.00356096
0.00337104
0.00573121
0.00824745
0.0105668
0.0128947
0.0150939
0.0171131
0.0188516
0.0203756
0.021694
0.0227944
0.0236753
0.0243387
0.0247827
0.0250055
0.0250061
0.0247845
0.0243417
0.0236795
0.0227997
0.0217001
0.0203823
0.0188585
0.0171202
0.0150995
0.012898
0.0105673
0.00824551
0.00572773
0.00336866
0.00488888
0.00254244
0.0107294
0.0160148
0.0210829
0.025573
0.0293959
0.0323718
0.0346548
0.0363767
0.0376755
0.0386489
0.0393497
0.0398063
0.0400326
0.040034
0.0398105
0.0393565
0.038658
0.0376866
0.0363895
0.0346681
0.0323811
0.0293995
0.02557
0.0210739
0.0160031
0.0107173
0.00253373
0.00488516
0.00830026
0.0131094
0.0172894
0.0210737
0.0240904
0.0271863
0.0301826
0.033057
0.0358297
0.0383213
0.0404641
0.0422345
0.0435891
0.0445082
0.0449746
0.0449743
0.0445082
0.043591
0.0422415
0.0404794
0.0383475
0.0358588
0.0330637
0.0301838
0.0271857
0.0240943
0.0210786
0.0172859
0.0130775
0.00829692
0.0110713
0.0182432
0.0232955
0.024865
0.0286779
0.034926
0.0415735
0.0478015
0.053276
0.0579276
0.061788
0.064946
0.0673586
0.0689932
0.0698158
0.0698089
0.0689731
0.0673263
0.0649061
0.0617492
0.0579012
0.0532803
0.0478122
0.0415629
0.0348923
0.0286874
0.0248767
0.0232879
0.018218
0.0110698
0.0137997
0.0221962
0.0263978
0.0295265
0.0386139
0.0507416
0.0620372
0.0718153
0.0799019
0.0867176
0.0923601
0.0969643
0.100461
0.102936
0.104208
0.104196
0.102901
0.10039
0.0968781
0.0922896
0.0866823
0.0799024
0.0718399
0.062073
0.050759
0.038553
0.0295299
0.0263908
0.0221757
0.013801
0.016418
0.0256328
0.028633
0.0359326
0.0508488
0.0686935
0.0859683
0.10108
0.113156
0.122572
0.129906
0.135532
0.139599
0.142233
0.143538
0.143532
0.142213
0.139562
0.135474
0.129861
0.122562
0.113185
0.101148
0.086077
0.0687604
0.0508875
0.035945
0.028626
0.025621
0.0164213
0.0188869
0.0282487
0.0310247
0.043672
0.0631717
0.0864044
0.109787
0.128698
0.142607
0.152829
0.16039
0.165932
0.169826
0.172297
0.173498
0.173497
0.172292
0.169816
0.165921
0.160388
0.152848
0.142648
0.128762
0.109886
0.0865073
0.063225
0.0437051
0.0310245
0.0282485
0.0188913
0.0211609
0.0303339
0.0341751
0.0510696
0.0748299
0.103313
0.129728
0.149906
0.164486
0.174846
0.182187
0.187341
0.190839
0.193009
0.194047
0.194048
0.19301
0.190842
0.187347
0.182201
0.174871
0.164522
0.149957
0.129788
0.103369
0.0748505
0.0510695
0.0342005
0.0303396
0.0211655
0.0231949
0.0320124
0.037562
0.057432
0.085067
0.117753
0.145176
0.165559
0.180024
0.190069
0.196962
0.201626
0.204683
0.206527
0.207395
0.207397
0.206531
0.20469
0.201637
0.196979
0.190092
0.180054
0.165594
0.145211
0.117768
0.0850475
0.0574207
0.0375842
0.0320179
0.0231988
0.0249855
0.033383
0.0409017
0.0634228
0.0950351
0.129651
0.157057
0.176997
0.19091
0.200378
0.206702
0.210842
0.213464
0.215001
0.21571
0.215711
0.215005
0.213471
0.210853
0.206716
0.200396
0.190931
0.177019
0.157075
0.129654
0.0950125
0.0634088
0.0409145
0.0333877
0.0249888
0.0265133
0.0345049
0.0439546
0.0687173
0.103692
0.13893
0.166006
0.185267
0.19846
0.207255
0.212981
0.216615
0.21884
0.220103
0.220673
0.220674
0.220106
0.218845
0.216623
0.212991
0.207267
0.198472
0.185277
0.16601
0.138922
0.103666
0.0687037
0.0439571
0.0345086
0.0265159
0.0277597
0.0354087
0.0464968
0.0730794
0.110598
0.145991
0.172572
0.191129
0.203608
0.211758
0.216933
0.220121
0.222007
0.223044
0.2235
0.223501
0.223046
0.222011
0.220126
0.216939
0.211764
0.203612
0.191129
0.172566
0.145975
0.110573
0.0730691
0.046494
0.0354116
0.0277618
0.028709
0.0361024
0.0484307
0.0763587
0.115701
0.151077
0.177177
0.195121
0.206998
0.214611
0.219336
0.222167
0.22379
0.224653
0.225023
0.225023
0.224654
0.223791
0.222168
0.219337
0.214611
0.206995
0.195114
0.177164
0.151057
0.115679
0.0763516
0.0484275
0.0361043
0.0287108
0.0293493
0.0365848
0.0497627
0.0785305
0.119046
0.154366
0.180103
0.197605
0.20905
0.216282
0.220692
0.223277
0.22472
0.225467
0.225779
0.225779
0.225467
0.22472
0.223276
0.22069
0.216278
0.209042
0.197593
0.180087
0.154345
0.119028
0.078526
0.0497593
0.0365849
0.0293508
0.0296725
0.0368674
0.0504469
0.0796223
0.120701
0.15598
0.181525
0.198795
0.210017
0.217052
0.2213
0.22376
0.225113
0.225801
0.226085
0.226085
0.2258
0.225112
0.223758
0.221297
0.217046
0.210007
0.198782
0.181507
0.155959
0.120684
0.0796185
0.0504429
0.0368617
0.0296738
0.0296726
0.036867
0.050447
0.0796221
0.1207
0.155978
0.181524
0.198794
0.210015
0.217051
0.221299
0.223758
0.225111
0.225799
0.226083
0.226083
0.225799
0.22511
0.223757
0.221295
0.217045
0.210006
0.19878
0.181506
0.155957
0.120681
0.0796171
0.0504429
0.0368613
0.029674
0.0293496
0.0365846
0.0497631
0.0785296
0.119043
0.154361
0.180099
0.197601
0.209046
0.216278
0.220688
0.223273
0.224716
0.225462
0.225775
0.225775
0.225463
0.224716
0.223272
0.220686
0.216274
0.209039
0.197589
0.180082
0.154339
0.11902
0.0785217
0.0497592
0.0365844
0.0293514
0.0287096
0.0361022
0.0484312
0.0763566
0.115694
0.15107
0.17717
0.195115
0.206992
0.214605
0.21933
0.22216
0.223783
0.224645
0.225015
0.225016
0.224646
0.223784
0.222162
0.219331
0.214605
0.206989
0.195108
0.177156
0.151047
0.115667
0.0763443
0.0484273
0.0361034
0.0287116
0.0277605
0.0354085
0.0464972
0.0730748
0.110589
0.145982
0.172564
0.191121
0.2036
0.21175
0.216924
0.220111
0.221997
0.223033
0.223489
0.223489
0.223035
0.222
0.220116
0.21693
0.211755
0.203604
0.191121
0.172557
0.145963
0.110558
0.0730582
0.0464937
0.0354101
0.0277629
0.0265143
0.0345045
0.0439539
0.0687097
0.10368
0.13892
0.165997
0.185258
0.19845
0.207244
0.212968
0.216601
0.218825
0.220087
0.220657
0.220658
0.220091
0.218831
0.21661
0.212979
0.207256
0.198462
0.185268
0.166
0.138909
0.103649
0.0686903
0.0439576
0.0345066
0.0265172
0.0249868
0.0333826
0.0409023
0.0634138
0.0950221
0.129642
0.157049
0.176988
0.190898
0.200364
0.206685
0.210824
0.213444
0.21498
0.215688
0.21569
0.214985
0.213452
0.210835
0.206701
0.200382
0.190919
0.177009
0.157065
0.129641
0.0949942
0.0633939
0.0409152
0.0333851
0.0249902
0.0231965
0.0320122
0.0375641
0.0574234
0.0850527
0.117746
0.145171
0.165551
0.180011
0.190052
0.196941
0.201602
0.204656
0.2065
0.207368
0.20737
0.206506
0.204665
0.201615
0.19696
0.190076
0.180041
0.165585
0.145203
0.117757
0.0850263
0.0574061
0.0375846
0.0320149
0.0232002
0.0211627
0.0303337
0.0341773
0.0510654
0.0748287
0.103319
0.12973
0.149901
0.164472
0.174825
0.18216
0.187309
0.190805
0.192975
0.194014
0.194015
0.192979
0.190812
0.18732
0.182178
0.174854
0.164511
0.149951
0.129788
0.103369
0.0748418
0.0510598
0.0342003
0.0303363
0.0211668
0.0188885
0.0282477
0.0310218
0.0436775
0.0631851
0.0864265
0.109801
0.128697
0.142594
0.152803
0.160353
0.165889
0.169782
0.172255
0.173458
0.173458
0.172254
0.169779
0.165886
0.16036
0.152829
0.142638
0.128762
0.109896
0.08652
0.0632307
0.0437044
0.0310201
0.0282447
0.018892
0.0164194
0.0256314
0.028628
0.0359336
0.0508629
0.0687128
0.0859905
0.101083
0.11314
0.122537
0.129853
0.13547
0.139542
0.142183
0.143493
0.143488
0.142169
0.139515
0.135428
0.129825
0.12254
0.113177
0.101153
0.086095
0.0687753
0.0508973
0.0359455
0.02862
0.025618
0.0164218
0.013801
0.0221926
0.0263934
0.0295239
0.0386023
0.0507546
0.0620479
0.0718138
0.0798857
0.086682
0.0923029
0.0968991
0.100397
0.102887
0.104164
0.104154
0.102857
0.100337
0.0968273
0.0922504
0.0866551
0.0798898
0.0718393
0.0620853
0.0507719
0.0385518
0.029524
0.0263844
0.0221717
0.0138016
0.0110719
0.018239
0.023295
0.0248653
0.0286816
0.0349196
0.0415711
0.0478042
0.0532715
0.0579087
0.0617624
0.0649183
0.0673314
0.0689671
0.0697904
0.0697842
0.0689488
0.067302
0.0648821
0.0617275
0.0578851
0.0532762
0.0478107
0.0415643
0.0348924
0.0286866
0.0248699
0.0232846
0.0182143
0.01107
0.00830026
0.0131043
0.0172901
0.0210738
0.0240887
0.0271818
0.0301781
0.0330526
0.0358282
0.0383181
0.0404601
0.0422286
0.0435818
0.0444974
0.0449623
0.0449631
0.0444995
0.043587
0.0422388
0.0404768
0.0383458
0.0358573
0.0330584
0.0301775
0.0271784
0.024088
0.0210739
0.0172843
0.0130746
0.00829686
0.0048885
0.00254019
0.0107272
0.0160119
0.0210806
0.0255715
0.0293931
0.0323702
0.0346542
0.0363761
0.037674
0.0386464
0.0393465
0.0398024
0.0400281
0.0400291
0.0398053
0.0393512
0.0386528
0.0376819
0.0363853
0.0346636
0.0323755
0.0293931
0.0255652
0.0210694
0.015999
0.0107151
0.00253213
0.00488498
0.00337087
0.00573113
0.00824809
0.0105683
0.0128972
0.0150971
0.0171168
0.0188547
0.0203788
0.0216973
0.0227984
0.0236793
0.0243427
0.0247866
0.0250093
0.0250098
0.024788
0.0243451
0.0236826
0.0228025
0.0217019
0.0203838
0.0188598
0.0171219
0.0151009
0.0128989
0.0105678
0.00824569
0.00572765
0.00336858
0.00333133
0.00565239
0.00813482
0.0104459
0.0127544
0.0149365
0.0169445
0.0186706
0.020176
0.0214764
0.0225663
0.0234422
0.0241017
0.0245422
0.0247622
0.0247611
0.0245389
0.0240963
0.0234348
0.0225565
0.0214642
0.0201627
0.0186577
0.0169333
0.014928
0.0127496
0.0104451
0.00813633
0.00565744
0.0033352
0.00484968
0.00302148
0.011993
0.0183769
0.0244228
0.0298627
0.0346484
0.0386714
0.041963
0.0446111
0.0467043
0.0483127
0.0494837
0.0502477
0.0506225
0.0506169
0.0502313
0.0494583
0.0482805
0.0466681
0.0445743
0.0419319
0.0386557
0.0346474
0.0298724
0.0244372
0.0183895
0.0119972
0.00305002
0.00485559
0.00819416
0.0142484
0.019637
0.0252842
0.0301224
0.0346428
0.0388224
0.0424412
0.0452526
0.047396
0.048997
0.0501703
0.0509991
0.0515335
0.0517967
0.0517964
0.0515326
0.0509978
0.0501692
0.0489967
0.0473991
0.0452681
0.0424733
0.0388405
0.0346386
0.030091
0.0252405
0.0196096
0.0142751
0.0081973
0.0109447
0.0205196
0.0275361
0.0309976
0.033937
0.0368413
0.0400065
0.0432621
0.046565
0.0499311
0.053049
0.0556974
0.0577795
0.0592125
0.0599387
0.0599268
0.059175
0.0577131
0.0556022
0.0529333
0.0498215
0.046535
0.0432474
0.0400013
0.0368394
0.0338731
0.0309279
0.0275259
0.0205584
0.0109478
0.0136246
0.0256896
0.0326436
0.0353977
0.0374523
0.0429758
0.0508897
0.058345
0.0649216
0.0708192
0.0759683
0.080031
0.0831184
0.0851771
0.0862129
0.086218
0.0851908
0.0831397
0.0800494
0.0759542
0.0707785
0.0649007
0.0583658
0.0510593
0.0431849
0.0374857
0.0353612
0.0326629
0.0257386
0.0136239
0.016197
0.0303615
0.0364414
0.0384353
0.0430888
0.0551014
0.0681558
0.079445
0.0888261
0.0965885
0.10302
0.108212
0.11219
0.114981
0.116403
0.116414
0.115014
0.112245
0.108306
0.103093
0.0965978
0.0888005
0.0794116
0.0681492
0.055165
0.0431961
0.0384417
0.0364864
0.0304023
0.0161925
0.018603
0.0344276
0.039347
0.0411733
0.0514421
0.0683695
0.0854698
0.10146
0.11533
0.12617
0.134441
0.140588
0.144944
0.147804
0.149226
0.149228
0.147809
0.144954
0.140605
0.134459
0.126142
0.115253
0.10135
0.0853722
0.0683322
0.0514878
0.0411746
0.0393914
0.0344403
0.0185958
0.0208138
0.0379194
0.041347
0.0446234
0.0607818
0.0810883
0.102541
0.123071
0.139143
0.150943
0.159545
0.165738
0.170025
0.172743
0.174065
0.174062
0.172734
0.170012
0.165722
0.159524
0.150899
0.139071
0.122949
0.102433
0.0810433
0.0607749
0.044621
0.0413652
0.0379171
0.0208062
0.0228034
0.0408892
0.0429633
0.0492974
0.0697195
0.0927916
0.118419
0.140536
0.157173
0.169196
0.177749
0.183742
0.187795
0.190306
0.191507
0.191503
0.190294
0.187777
0.183718
0.177718
0.169154
0.157118
0.140466
0.11835
0.0927727
0.0697139
0.0492108
0.042969
0.040882
0.0227966
0.0245495
0.0433427
0.0443674
0.0541389
0.0772157
0.103389
0.131593
0.153894
0.170407
0.182194
0.190452
0.196126
0.199885
0.20217
0.203249
0.203246
0.20216
0.199868
0.196104
0.190423
0.182158
0.170365
0.153849
0.131558
0.103388
0.0772102
0.0540523
0.0443738
0.0433341
0.0245439
0.0260335
0.0453192
0.0456092
0.0587019
0.0836936
0.112907
0.141705
0.16387
0.179962
0.191312
0.199158
0.204462
0.207911
0.209974
0.210937
0.210934
0.209966
0.207898
0.204443
0.199136
0.191286
0.179935
0.163845
0.141696
0.112926
0.0836995
0.0586461
0.045617
0.045311
0.0260293
0.02724
0.0468543
0.0467021
0.0624431
0.088915
0.120479
0.149346
0.171133
0.186721
0.197586
0.205003
0.20994
0.213099
0.214959
0.215817
0.215815
0.214953
0.21309
0.209927
0.204988
0.197571
0.186708
0.171127
0.149357
0.120512
0.0889393
0.0624422
0.0467094
0.0468471
0.0272369
0.0281562
0.047979
0.0476148
0.0652753
0.0927935
0.126006
0.154793
0.176181
0.191309
0.201743
0.208783
0.213406
0.21632
0.218012
0.218785
0.218783
0.218008
0.216314
0.213398
0.208775
0.201737
0.191307
0.176188
0.154814
0.12604
0.0928184
0.0652802
0.0476191
0.0479733
0.0281539
0.0287725
0.0487132
0.0482929
0.0672047
0.0953585
0.129593