/*--------------------------------*- C++ -*----------------------------------*\
| =========                 |                                                 |
| \\      /  F ield         | OpenFOAM: The Open Source CFD Toolbox           |
|  \\    /   O peration     | Version:  2312                                  |
|   \\  /    A nd           | Website:  www.openfoam.com                      |
|    \\/     M anipulation  |                                                 |
\*---------------------------------------------------------------------------*/
FoamFile
{
    version     2.0;
    format      ascii;
    arch        "LSB;label=32;scalar=64";
    class       volScalarField;
    location    "500";
    object      epsilon;
}
// * * * * * * * * * * * * * * * * * * * * * * * * * * * * * * * * * * * * * //

dimensions      [0 2 -3 0 0 0 0];

internalField   nonuniform List<scalar> 
27000
(
0.00152903
0.000224968
0.000110909
7.00575e-05
5.19611e-05
4.16699e-05
3.49654e-05
3.03269e-05
2.69938e-05
2.45528e-05
2.2738e-05
2.14074e-05
2.04782e-05
1.98895e-05
1.9604e-05
1.96042e-05
1.98901e-05
2.04792e-05
2.1409e-05
2.27401e-05
2.45549e-05
2.69965e-05
3.03304e-05
3.49698e-05
4.16751e-05
5.19667e-05
7.00622e-05
0.00011091
0.000224952
0.00152887
0.000151152
3.26437e-05
1.39563e-05
9.32507e-06
7.1916e-06
5.95863e-06
5.12046e-06
4.50809e-06
4.04957e-06
3.70638e-06
3.44943e-06
3.2598e-06
3.12636e-06
3.04146e-06
3.00019e-06
3.00022e-06
3.04155e-06
3.12651e-06
3.25997e-06
3.44957e-06
3.70643e-06
4.04956e-06
4.50804e-06
5.12045e-06
5.95882e-06
7.19206e-06
9.32574e-06
1.3957e-05
3.26426e-05
0.000151146
0.000100299
1.54252e-05
5.15479e-06
2.55989e-06
1.90924e-06
1.62429e-06
1.44576e-06
1.31693e-06
1.21907e-06
1.14415e-06
1.0871e-06
1.04443e-06
1.01404e-06
9.94512e-07
9.84956e-07
9.84952e-07
9.94498e-07
1.01401e-06
1.04438e-06
1.08699e-06
1.14398e-06
1.21885e-06
1.3167e-06
1.4456e-06
1.6243e-06
1.90952e-06
2.5605e-06
5.15508e-06
1.54233e-05
0.000100295
6.6683e-05
1.03356e-05
2.8489e-06
1.38584e-06
9.88972e-07
8.49152e-07
7.78114e-07
7.31322e-07
6.96821e-07
6.70644e-07
6.50522e-07
6.35311e-07
6.24375e-07
6.17293e-07
6.1381e-07
6.13802e-07
6.1727e-07
6.24333e-07
6.35247e-07
6.50434e-07
6.70539e-07
6.96713e-07
7.31241e-07
7.78105e-07
8.49269e-07
9.89253e-07
1.38625e-06
2.84913e-06
1.03352e-05
6.66822e-05
4.92057e-05
7.28636e-06
2.05336e-06
1.03773e-06
7.44995e-07
6.3718e-07
5.89054e-07
5.62122e-07
5.4422e-07
5.32482e-07
5.23757e-07
5.17048e-07
5.12189e-07
5.09021e-07
5.07455e-07
5.07447e-07
5.09e-07
5.12156e-07
5.17003e-07
5.23706e-07
5.32445e-07
5.4419e-07
5.62117e-07
5.89099e-07
6.37296e-07
7.45186e-07
1.03794e-06
2.0534e-06
7.2861e-06
4.92068e-05
3.86086e-05
5.62814e-06
1.63565e-06
8.76394e-07
6.47618e-07
5.5876e-07
5.19746e-07
5.00195e-07
4.88982e-07
4.82047e-07
4.77398e-07
4.74086e-07
4.71753e-07
4.70248e-07
4.69505e-07
4.695e-07
4.70232e-07
4.71728e-07
4.74055e-07
4.77368e-07
4.82025e-07
4.88974e-07
5.00211e-07
5.19792e-07
5.58827e-07
6.47713e-07
8.76451e-07
1.63554e-06
5.62786e-06
3.86097e-05
3.1612e-05
4.60436e-06
1.39256e-06
7.81814e-07
5.95621e-07
5.22366e-07
4.89723e-07
4.74142e-07
4.66122e-07
4.61671e-07
4.59003e-07
4.57283e-07
4.56145e-07
4.55434e-07
4.55088e-07
4.55084e-07
4.55423e-07
4.56128e-07
4.57264e-07
4.58986e-07
4.61662e-07
4.66126e-07
4.74162e-07
4.8976e-07
5.22411e-07
5.95657e-07
7.81799e-07
1.39241e-06
4.6041e-06
3.16127e-05
2.67322e-05
3.91377e-06
1.23246e-06
7.19807e-07
5.62218e-07
5.01674e-07
4.74765e-07
4.62256e-07
4.56252e-07
4.53248e-07
4.51655e-07
4.50745e-07
4.50197e-07
4.49874e-07
4.4972e-07
4.49717e-07
4.49866e-07
4.50187e-07
4.50734e-07
4.51646e-07
4.53246e-07
4.56259e-07
4.62273e-07
4.74788e-07
5.01696e-07
5.62225e-07
7.19772e-07
1.23234e-06
3.91359e-06
2.67326e-05
2.31776e-05
3.41877e-06
1.11717e-06
6.75743e-07
5.39253e-07
4.88492e-07
4.66353e-07
4.56375e-07
4.51846e-07
4.49775e-07
4.48803e-07
4.4832e-07
4.48063e-07
4.47923e-07
4.4786e-07
4.47858e-07
4.47919e-07
4.48057e-07
4.48314e-07
4.48799e-07
4.49776e-07
4.51853e-07
4.56387e-07
4.66366e-07
4.88502e-07
5.39252e-07
6.75716e-07
1.1171e-06
3.41865e-06
2.31774e-05
2.05865e-05
3.05746e-06
1.03135e-06
6.43401e-07
5.25167e-07
4.80138e-07
4.61331e-07
4.53244e-07
4.49789e-07
4.4834e-07
4.47738e-07
4.47482e-07
4.47366e-07
4.4731e-07
4.47286e-07
4.47285e-07
4.47308e-07
4.47363e-07
4.47479e-07
4.47737e-07
4.48342e-07
4.49794e-07
4.53251e-07
4.61338e-07
4.80142e-07
5.25165e-07
6.4339e-07
1.03132e-06
3.05738e-06
2.05858e-05
1.86954e-05
2.79342e-06
9.67257e-07
6.18717e-07
5.13687e-07
4.74175e-07
4.58074e-07
4.51433e-07
4.48758e-07
4.47726e-07
4.47348e-07
4.47214e-07
4.47165e-07
4.47146e-07
4.47138e-07
4.47137e-07
4.47144e-07
4.47163e-07
4.47212e-07
4.47348e-07
4.47728e-07
4.48762e-07
4.51438e-07
4.58079e-07
4.74179e-07
5.13691e-07
6.18722e-07
9.67262e-07
2.79335e-06
1.86943e-05
1.73332e-05
2.603e-06
9.2032e-07
6.00395e-07
5.05001e-07
4.69794e-07
4.55837e-07
4.50301e-07
4.48191e-07
4.47441e-07
4.47199e-07
4.47131e-07
4.47114e-07
4.47111e-07
4.4711e-07
4.47109e-07
4.4711e-07
4.47114e-07
4.47131e-07
4.472e-07
4.47443e-07
4.48194e-07
4.50305e-07
4.55843e-07
4.69802e-07
5.05011e-07
6.0041e-07
9.20343e-07
2.60294e-06
1.73319e-05
1.639e-05
2.47098e-06
8.87403e-07
5.87344e-07
4.98817e-07
4.66713e-07
4.54316e-07
4.49574e-07
4.47857e-07
4.47293e-07
4.47135e-07
4.47103e-07
4.47102e-07
4.47105e-07
4.47107e-07
4.47107e-07
4.47105e-07
4.47102e-07
4.47103e-07
4.47136e-07
4.47295e-07
4.47861e-07
4.49579e-07
4.54324e-07
4.66723e-07
4.98831e-07
5.8736e-07
8.87433e-07
2.47092e-06
1.63886e-05
1.57957e-05
2.38771e-06
8.66464e-07
5.78893e-07
4.94844e-07
4.64754e-07
4.53367e-07
4.49135e-07
4.47665e-07
4.47213e-07
4.47103e-07
4.47091e-07
4.47097e-07
4.47104e-07
4.47107e-07
4.47107e-07
4.47104e-07
4.47098e-07
4.47091e-07
4.47104e-07
4.47215e-07
4.47668e-07
4.4914e-07
4.53375e-07
4.64766e-07
4.94859e-07
5.7891e-07
8.66497e-07
2.38764e-06
1.57942e-05
1.55086e-05
2.34746e-06
8.56298e-07
5.74768e-07
4.92906e-07
4.63803e-07
4.5291e-07
4.48926e-07
4.47574e-07
4.47176e-07
4.47088e-07
4.47084e-07
4.47094e-07
4.47102e-07
4.47105e-07
4.47106e-07
4.47102e-07
4.47095e-07
4.47085e-07
4.4709e-07
4.47178e-07
4.47578e-07
4.48931e-07
4.52918e-07
4.63815e-07
4.92921e-07
5.74784e-07
8.5633e-07
2.34738e-06
1.55071e-05
1.55091e-05
2.34755e-06
8.56316e-07
5.74772e-07
4.92906e-07
4.63802e-07
4.52908e-07
4.48924e-07
4.47572e-07
4.47174e-07
4.47086e-07
4.47082e-07
4.47092e-07
4.471e-07
4.47103e-07
4.47103e-07
4.471e-07
4.47092e-07
4.47083e-07
4.47087e-07
4.47176e-07
4.47576e-07
4.48929e-07
4.52916e-07
4.63812e-07
4.9292e-07
5.74787e-07
8.56346e-07
2.34747e-06
1.55075e-05
1.57972e-05
2.38797e-06
8.66518e-07
5.78906e-07
4.94844e-07
4.6475e-07
4.53362e-07
4.49129e-07
4.47659e-07
4.47207e-07
4.47097e-07
4.47084e-07
4.4709e-07
4.47096e-07
4.47099e-07
4.47099e-07
4.47097e-07
4.47091e-07
4.47085e-07
4.47098e-07
4.47209e-07
4.47662e-07
4.49133e-07
4.53367e-07
4.64758e-07
4.94856e-07
5.78919e-07
8.66545e-07
2.38789e-06
1.57957e-05
1.63924e-05
2.47142e-06
8.87494e-07
5.87365e-07
4.98818e-07
4.66707e-07
4.54308e-07
4.49566e-07
4.47848e-07
4.47283e-07
4.47124e-07
4.47092e-07
4.4709e-07
4.47092e-07
4.47094e-07
4.47094e-07
4.47093e-07
4.4709e-07
4.47092e-07
4.47126e-07
4.47285e-07
4.47851e-07
4.49568e-07
4.54312e-07
4.66712e-07
4.98825e-07
5.87375e-07
8.87514e-07
2.47135e-06
1.63911e-05
1.73367e-05
2.60363e-06
9.20449e-07
6.00426e-07
5.05003e-07
4.69788e-07
4.55828e-07
4.5029e-07
4.4818e-07
4.47428e-07
4.47185e-07
4.47115e-07
4.47097e-07
4.47092e-07
4.47091e-07
4.47091e-07
4.47092e-07
4.47097e-07
4.47116e-07
4.47187e-07
4.47431e-07
4.48183e-07
4.50293e-07
4.55829e-07
4.69788e-07
5.05003e-07
6.00429e-07
9.20458e-07
2.60356e-06
1.73355e-05
1.87e-05
2.79427e-06
9.67429e-07
6.1876e-07
5.13694e-07
4.74171e-07
4.58067e-07
4.51424e-07
4.48747e-07
4.47713e-07
4.47331e-07
4.47194e-07
4.47143e-07
4.47122e-07
4.47113e-07
4.47113e-07
4.47121e-07
4.47143e-07
4.47195e-07
4.47333e-07
4.47717e-07
4.48752e-07
4.51428e-07
4.58068e-07
4.74167e-07
5.13685e-07
6.18747e-07
9.67413e-07
2.79419e-06
1.86991e-05
2.05925e-05
3.05856e-06
1.03157e-06
6.4346e-07
5.25186e-07
4.80144e-07
4.61332e-07
4.53241e-07
4.49782e-07
4.48327e-07
4.47719e-07
4.47459e-07
4.47339e-07
4.47281e-07
4.47255e-07
4.47254e-07
4.47279e-07
4.47337e-07
4.47458e-07
4.47721e-07
4.48333e-07
4.4979e-07
4.5325e-07
4.61337e-07
4.8014e-07
5.25169e-07
6.43427e-07
1.03152e-06
3.05846e-06
2.05921e-05
2.31853e-05
3.42016e-06
1.11745e-06
6.75832e-07
5.39297e-07
4.8852e-07
4.66371e-07
4.56384e-07
4.51846e-07
4.49765e-07
4.48784e-07
4.48294e-07
4.48031e-07
4.47888e-07
4.47823e-07
4.47821e-07
4.47885e-07
4.48027e-07
4.48291e-07
4.48785e-07
4.49772e-07
4.51859e-07
4.56401e-07
4.66386e-07
4.88524e-07
5.39282e-07
6.75778e-07
1.11734e-06
3.42001e-06
2.31854e-05
2.67417e-05
3.91548e-06
1.23284e-06
7.19953e-07
5.62305e-07
5.01738e-07
4.74811e-07
4.62284e-07
4.56263e-07
4.53244e-07
4.51637e-07
4.50718e-07
4.50163e-07
4.49835e-07
4.49679e-07
4.49677e-07
4.49828e-07
4.50153e-07
4.50709e-07
4.51633e-07
4.53249e-07
4.5628e-07
4.62313e-07
4.74843e-07
5.01761e-07
5.623e-07
7.19886e-07
1.23267e-06
3.91524e-06
2.67426e-05
3.16221e-05
4.60644e-06
1.39312e-06
7.82071e-07
5.95789e-07
5.22486e-07
4.89809e-07
4.74197e-07
4.6615e-07
4.61676e-07
4.58991e-07
4.57259e-07
4.56113e-07
4.55398e-07
4.55049e-07
4.55044e-07
4.55385e-07
4.56095e-07
4.5724e-07
4.58976e-07
4.61674e-07
4.66165e-07
4.74234e-07
4.89863e-07
5.22542e-07
5.9582e-07
7.82019e-07
1.39288e-06
4.60601e-06
3.16232e-05
3.86208e-05
5.63098e-06
1.63655e-06
8.76844e-07
6.4791e-07
5.58951e-07
5.19886e-07
5.00287e-07
4.89036e-07
4.8207e-07
4.77402e-07
4.74078e-07
4.71738e-07
4.70227e-07
4.69482e-07
4.69475e-07
4.70208e-07
4.71708e-07
4.74043e-07
4.77369e-07
4.8205e-07
4.89038e-07
5.00322e-07
5.19959e-07
5.59043e-07
6.48016e-07
8.76867e-07
1.63631e-06
5.63039e-06
3.86225e-05
4.92206e-05
7.29022e-06
2.05485e-06
1.0385e-06
7.45475e-07
6.37502e-07
5.8928e-07
5.62276e-07
5.44326e-07
5.32545e-07
5.23806e-07
5.17088e-07
5.12224e-07
5.09051e-07
5.07481e-07
5.07472e-07
5.09024e-07
5.1218e-07
5.1703e-07
5.23743e-07
5.32502e-07
5.44295e-07
5.62281e-07
5.89356e-07
6.37664e-07
7.45707e-07
1.0387e-06
2.05471e-06
7.28945e-06
4.92222e-05
6.67012e-05
1.03409e-05
2.85139e-06
1.38712e-06
9.89755e-07
8.49703e-07
7.78528e-07
7.31642e-07
6.97073e-07
6.7085e-07
6.50709e-07
6.35491e-07
6.24553e-07
6.1747e-07
6.13984e-07
6.13973e-07
6.17436e-07
6.24494e-07
6.35405e-07
6.50594e-07
6.70716e-07
6.96941e-07
7.31548e-07
7.78529e-07
8.49863e-07
9.90109e-07
1.38757e-06
2.85141e-06
1.03395e-05
6.67008e-05
0.000100322
1.54318e-05
5.15927e-06
2.56231e-06
1.9109e-06
1.6256e-06
1.44685e-06
1.31786e-06
1.21987e-06
1.14488e-06
1.0878e-06
1.04514e-06
1.01474e-06
9.95212e-07
9.85654e-07
9.85645e-07
9.95185e-07
1.01469e-06
1.04504e-06
1.08764e-06
1.14464e-06
1.21958e-06
1.31755e-06
1.44662e-06
1.62556e-06
1.91121e-06
2.563e-06
5.15939e-06
1.5428e-05
0.000100317
0.000151184
3.26527e-05
1.39628e-05
9.33111e-06
7.19708e-06
5.96347e-06
5.12479e-06
4.51202e-06
4.05315e-06
3.70973e-06
3.45284e-06
3.2632e-06
3.12971e-06
3.04475e-06
3.00346e-06
3.00349e-06
3.04484e-06
3.12984e-06
3.26335e-06
3.45294e-06
3.70969e-06
4.05303e-06
4.51183e-06
5.12459e-06
5.96333e-06
7.19716e-06
9.33137e-06
1.39632e-05
3.26501e-05
0.000151168
0.00152937
0.000225037
0.000110949
7.00864e-05
5.19848e-05
4.16904e-05
3.49837e-05
3.03434e-05
2.70091e-05
2.45674e-05
2.27543e-05
2.14233e-05
2.04935e-05
1.99045e-05
1.96189e-05
1.96191e-05
1.99053e-05
2.04948e-05
2.14252e-05
2.27568e-05
2.457e-05
2.70123e-05
3.03474e-05
3.49886e-05
4.16962e-05
5.19907e-05
7.00902e-05
0.000110945
0.000225008
0.00152912
0.0011175
0.000168159
8.87649e-05
5.87459e-05
4.55895e-05
3.78903e-05
3.27615e-05
2.91134e-05
2.6416e-05
2.44167e-05
2.2972e-05
2.19396e-05
2.12167e-05
2.07558e-05
2.05311e-05
2.05307e-05
2.07546e-05
2.12145e-05
2.19363e-05
2.29673e-05
2.44116e-05
2.64092e-05
2.91041e-05
3.27461e-05
3.78725e-05
4.55726e-05
5.87367e-05
8.8781e-05
0.000168259
0.00111825
0.000106466
3.05731e-05
2.02295e-05
1.42526e-05
1.14455e-05
9.62164e-06
8.27952e-06
7.28557e-06
6.5206e-06
5.93586e-06
5.50226e-06
5.19133e-06
4.97702e-06
4.8422e-06
4.777e-06
4.77687e-06
4.84182e-06
4.97646e-06
5.19073e-06
5.50188e-06
5.93599e-06
6.52114e-06
7.28633e-06
8.28032e-06
9.62298e-06
1.14477e-05
1.42563e-05
2.0239e-05
3.06029e-05
0.000106536
8.35734e-05
2.2077e-05
1.13157e-05
5.82725e-06
3.7443e-06
2.88486e-06
2.41039e-06
2.08868e-06
1.85461e-06
1.68159e-06
1.55568e-06
1.46655e-06
1.40566e-06
1.36781e-06
1.34975e-06
1.34978e-06
1.3679e-06
1.40583e-06
1.46687e-06
1.55631e-06
1.68278e-06
1.85622e-06
2.09048e-06
2.41187e-06
2.88531e-06
3.74297e-06
5.82488e-06
1.13203e-05
2.21038e-05
8.36045e-05
5.74822e-05
1.61166e-05
6.51928e-06
2.84398e-06
1.58947e-06
1.16431e-06
9.83679e-07
8.80174e-07
8.08501e-07
7.55622e-07
7.16663e-07
6.8858e-07
6.69188e-07
6.57055e-07
6.51235e-07
6.51263e-07
6.57144e-07
6.69344e-07
6.88823e-07
7.17012e-07
7.56072e-07
8.08981e-07
8.80572e-07
9.83772e-07
1.16376e-06
1.58796e-06
2.84139e-06
6.5213e-06
1.61306e-05
5.74887e-05
4.44734e-05
1.1508e-05
4.10399e-06
1.70618e-06
9.69323e-07
7.11865e-07
6.08177e-07
5.56955e-07
5.24688e-07
5.00622e-07
4.83117e-07
4.70693e-07
4.62151e-07
4.56997e-07
4.54582e-07
4.54611e-07
4.57081e-07
4.62268e-07
4.70852e-07
4.83308e-07
5.00805e-07
5.24832e-07
5.56987e-07
6.08002e-07
7.11366e-07
9.68424e-07
1.70492e-06
4.1056e-06
1.15153e-05
4.44682e-05
3.64139e-05
8.72343e-06
2.82901e-06
1.21196e-06
7.3023e-07
5.54294e-07
4.76632e-07
4.40539e-07
4.2105e-07
4.0851e-07
3.99773e-07
3.93633e-07
3.89439e-07
3.86857e-07
3.85642e-07
3.85664e-07
3.86919e-07
3.89532e-07
3.93746e-07
3.9989e-07
4.08599e-07
4.21072e-07
4.40451e-07
4.76436e-07
5.53978e-07
7.29849e-07
1.21186e-06
2.83083e-06
8.72738e-06
3.64081e-05
3.08663e-05
6.97937e-06
2.13112e-06
9.56948e-07
6.13001e-07
4.79592e-07
4.21175e-07
3.9306e-07
3.78411e-07
3.69982e-07
3.64677e-07
3.61178e-07
3.58877e-07
3.57478e-07
3.56823e-07
3.56837e-07
3.57519e-07
3.58937e-07
3.61245e-07
3.64734e-07
3.70006e-07
3.78377e-07
3.92952e-07
4.21005e-07
4.79421e-07
6.129e-07
9.57148e-07
2.13263e-06
6.98118e-06
3.08615e-05
2.69571e-05
5.84717e-06
1.72938e-06
8.12255e-07
5.45916e-07
4.40346e-07
3.93514e-07
3.70571e-07
3.58734e-07
3.5232e-07
3.4864e-07
3.46421e-07
3.4506e-07
3.44266e-07
3.43902e-07
3.43911e-07
3.44291e-07
3.45094e-07
3.46456e-07
3.48662e-07
3.52316e-07
3.58692e-07
3.70489e-07
3.93412e-07
4.40267e-07
5.45928e-07
8.1249e-07
1.73037e-06
5.84798e-06
2.69534e-05
2.4211e-05
5.08693e-06
1.48477e-06
7.2465e-07
5.03897e-07
4.16999e-07
3.77979e-07
3.58797e-07
3.48988e-07
3.43856e-07
3.41101e-07
3.39578e-07
3.38718e-07
3.38248e-07
3.38041e-07
3.38046e-07
3.38262e-07
3.38736e-07
3.39594e-07
3.41107e-07
3.43845e-07
3.48956e-07
3.5875e-07
3.77934e-07
4.16984e-07
5.03943e-07
7.2482e-07
1.4853e-06
5.0871e-06
2.42088e-05
2.21715e-05
4.55732e-06
1.32677e-06
6.67926e-07
4.74787e-07
4.01635e-07
3.68424e-07
3.52124e-07
3.43883e-07
3.39682e-07
3.37532e-07
3.36422e-07
3.35844e-07
3.35551e-07
3.35427e-07
3.3543e-07
3.35558e-07
3.35853e-07
3.36429e-07
3.37533e-07
3.39674e-07
3.43866e-07
3.52104e-07
3.68413e-07
4.01651e-07
4.74844e-07
6.68015e-07
1.32695e-06
4.5571e-06
2.21705e-05
2.06506e-05
4.18098e-06
1.22033e-06
6.29844e-07
4.5684e-07
3.91575e-07
3.62298e-07
3.48116e-07
3.41068e-07
3.37563e-07
3.35832e-07
3.34983e-07
3.34568e-07
3.3437e-07
3.34291e-07
3.34293e-07
3.34374e-07
3.34573e-07
3.34986e-07
3.35832e-07
3.37558e-07
3.41061e-07
3.4811e-07
3.623e-07
3.9159e-07
4.56868e-07
6.29861e-07
1.22028e-06
4.18054e-06
2.06502e-05
1.95345e-05
3.91438e-06
1.14733e-06
6.03587e-07
4.44753e-07
3.84871e-07
3.5829e-07
3.45619e-07
3.39445e-07
3.36445e-07
3.35007e-07
3.34326e-07
3.34008e-07
3.33862e-07
3.33806e-07
3.33806e-07
3.33864e-07
3.3401e-07
3.34328e-07
3.35007e-07
3.36443e-07
3.39442e-07
3.45618e-07
3.58292e-07
3.84875e-07
4.4475e-07
6.03553e-07
1.14714e-06
3.91383e-06
1.95345e-05
1.87497e-05
3.73151e-06
1.09817e-06
5.85665e-07
4.36557e-07
3.80395e-07
3.55672e-07
3.44049e-07
3.38484e-07
3.35836e-07
3.34594e-07
3.34021e-07
3.33759e-07
3.33642e-07
3.33597e-07
3.33598e-07
3.33643e-07
3.33761e-07
3.34023e-07
3.34595e-07
3.35836e-07
3.38484e-07
3.44048e-07
3.5567e-07
3.80387e-07
4.36531e-07
5.85596e-07
1.09792e-06
3.73092e-06
1.875e-05
1.82494e-05
3.61685e-06
1.06767e-06
5.74331e-07
4.31389e-07
3.77605e-07
3.54068e-07
3.43113e-07
3.37936e-07
3.35508e-07
3.34388e-07
3.33879e-07
3.33649e-07
3.33546e-07
3.33507e-07
3.33508e-07
3.33547e-07
3.3365e-07
3.3388e-07
3.3439e-07
3.35509e-07
3.37936e-07
3.43112e-07
3.54063e-07
3.7759e-07
4.31351e-07
5.74247e-07
1.0674e-06
3.61625e-06
1.82497e-05
1.80055e-05
3.56147e-06
1.05302e-06
5.68865e-07
4.28885e-07
3.76259e-07
3.53303e-07
3.42673e-07
3.37685e-07
3.35364e-07
3.34302e-07
3.33823e-07
3.33607e-07
3.33511e-07
3.33474e-07
3.33474e-07
3.33512e-07
3.33608e-07
3.33824e-07
3.34304e-07
3.35366e-07
3.37686e-07
3.42673e-07
3.53298e-07
3.76243e-07
4.28844e-07
5.68778e-07
1.05274e-06
3.56086e-06
1.80058e-05
1.80053e-05
3.56143e-06
1.05302e-06
5.68869e-07
4.2889e-07
3.76264e-07
3.53307e-07
3.42677e-07
3.37688e-07
3.35367e-07
3.34305e-07
3.33826e-07
3.3361e-07
3.33514e-07
3.33477e-07
3.33477e-07
3.33515e-07
3.33611e-07
3.33827e-07
3.34307e-07
3.35369e-07
3.3769e-07
3.42679e-07
3.53305e-07
3.76251e-07
4.28854e-07
5.68786e-07
1.05274e-06
3.56079e-06
1.80055e-05
1.82489e-05
3.61672e-06
1.06766e-06
5.74344e-07
4.31405e-07
3.7762e-07
3.54081e-07
3.43124e-07
3.37945e-07
3.35517e-07
3.34397e-07
3.33888e-07
3.33658e-07
3.33556e-07
3.33517e-07
3.33517e-07
3.33557e-07
3.33659e-07
3.33889e-07
3.34399e-07
3.3552e-07
3.37949e-07
3.43128e-07
3.54084e-07
3.77616e-07
4.31381e-07
5.74273e-07
1.0674e-06
3.61605e-06
1.82488e-05
1.87488e-05
3.73128e-06
1.09815e-06
5.8569e-07
4.36587e-07
3.80421e-07
3.55694e-07
3.44067e-07
3.385e-07
3.35851e-07
3.3461e-07
3.34037e-07
3.33776e-07
3.3366e-07
3.33615e-07
3.33615e-07
3.3366e-07
3.33777e-07
3.34038e-07
3.34611e-07
3.35853e-07
3.38504e-07
3.44074e-07
3.55704e-07
3.80431e-07
4.36583e-07
5.8564e-07
1.09792e-06
3.73058e-06
1.87484e-05
1.95331e-05
3.91405e-06
1.14732e-06
6.03628e-07
4.44799e-07
3.84909e-07
3.58321e-07
3.45644e-07
3.39467e-07
3.36467e-07
3.3503e-07
3.34351e-07
3.34033e-07
3.33889e-07
3.33833e-07
3.33833e-07
3.3389e-07
3.34034e-07
3.34351e-07
3.35029e-07
3.36466e-07
3.39469e-07
3.45652e-07
3.58338e-07
3.84936e-07
4.44825e-07
6.03618e-07
1.14715e-06
3.91333e-06
1.95322e-05
2.06485e-05
4.18055e-06
1.22034e-06
6.29909e-07
4.56904e-07
3.91624e-07
3.62335e-07
3.48146e-07
3.41096e-07
3.37591e-07
3.35864e-07
3.35018e-07
3.34605e-07
3.34409e-07
3.34331e-07
3.34331e-07
3.34411e-07
3.34607e-07
3.35018e-07
3.3586e-07
3.37585e-07
3.4109e-07
3.48147e-07
3.62352e-07
3.91665e-07
4.56966e-07
6.29954e-07
1.22031e-06
4.17987e-06
2.0647e-05
2.21686e-05
4.55681e-06
1.32683e-06
6.68021e-07
4.74866e-07
4.01688e-07
3.6846e-07
3.52153e-07
3.43914e-07
3.39718e-07
3.37575e-07
3.3647e-07
3.35896e-07
3.35605e-07
3.35483e-07
3.35485e-07
3.3561e-07
3.35902e-07
3.36472e-07
3.3757e-07
3.39705e-07
3.43894e-07
3.52137e-07
3.68461e-07
4.01727e-07
4.74956e-07
6.68141e-07
1.32703e-06
4.55627e-06
2.21661e-05
2.42069e-05
5.08635e-06
1.4849e-06
7.24768e-07
5.03965e-07
4.17037e-07
3.78002e-07
3.58821e-07
3.4902e-07
3.439e-07
3.41158e-07
3.39643e-07
3.3879e-07
3.38324e-07
3.38118e-07
3.38122e-07
3.38335e-07
3.38803e-07
3.39653e-07
3.41156e-07
3.43881e-07
3.48982e-07
3.58771e-07
3.77964e-07
4.17041e-07
5.04037e-07
7.24968e-07
1.48542e-06
5.08612e-06
2.4203e-05
2.69516e-05
5.8466e-06
1.72953e-06
8.12359e-07
5.45953e-07
4.40349e-07
3.93512e-07
3.70583e-07
3.5877e-07
3.52378e-07
3.48716e-07
3.46511e-07
3.45157e-07
3.44368e-07
3.44007e-07
3.44015e-07
3.4439e-07
3.45187e-07
3.46538e-07
3.48729e-07
3.52362e-07
3.58714e-07
3.70491e-07
3.93406e-07
4.40279e-07
5.45985e-07
8.12622e-07
1.7305e-06
5.84692e-06
2.69458e-05
3.08623e-05
6.9787e-06
2.13109e-06
9.56941e-07
6.12962e-07
4.79535e-07
4.21137e-07
3.93063e-07
3.78457e-07
3.70063e-07
3.64783e-07
3.61299e-07
3.59007e-07
3.57613e-07
3.5696e-07
3.56974e-07
3.57652e-07
3.59063e-07
3.6136e-07
3.6483e-07
3.70074e-07
3.78405e-07
3.92935e-07
4.2095e-07
4.79355e-07
6.12871e-07
9.5717e-07
2.13259e-06
6.97999e-06
3.08557e-05
3.64082e-05
8.7216e-06
2.82844e-06
1.21167e-06
7.3002e-07
5.54159e-07
4.76572e-07
4.4055e-07
4.21125e-07
4.08631e-07
3.99918e-07
3.93789e-07
3.89602e-07
3.87027e-07
3.85815e-07
3.85837e-07
3.8709e-07
3.89696e-07
3.93901e-07
4.00029e-07
4.08707e-07
4.21127e-07
4.40435e-07
4.76341e-07
5.53812e-07
7.29635e-07
1.21161e-06
2.83029e-06
8.72501e-06
3.64003e-05
4.44633e-05
1.15064e-05
4.10268e-06
1.70507e-06
9.68846e-07
7.1166e-07
6.08134e-07
5.5701e-07
5.24814e-07
5.00799e-07
4.833e-07
4.70875e-07
4.62333e-07
4.57192e-07
4.5478e-07
4.54812e-07
4.57282e-07
4.62458e-07
4.71043e-07
4.83497e-07
5.00977e-07
5.24943e-07
5.57012e-07
6.07915e-07
7.11109e-07
9.6792e-07
1.70394e-06
4.10442e-06
1.15131e-05
4.44552e-05
5.74736e-05
1.61171e-05
6.51734e-06
2.84222e-06
1.58876e-06
1.16403e-06
9.8366e-07
8.80308e-07
8.08714e-07
7.55864e-07
7.16897e-07
6.8879e-07
6.69375e-07
6.57222e-07
6.51392e-07
6.51425e-07
6.57322e-07
6.69548e-07
6.89052e-07
7.17262e-07
7.56327e-07
8.0919e-07
8.80675e-07
9.83692e-07
1.1634e-06
1.58718e-06
2.83987e-06
6.51964e-06
1.61308e-05
5.74762e-05
8.35748e-05
2.20813e-05
1.13152e-05
5.82586e-06
3.74323e-06
2.88416e-06
2.41003e-06
2.08863e-06
1.85471e-06
1.68172e-06
1.55581e-06
1.46659e-06
1.40563e-06
1.36764e-06
1.3495e-06
1.34954e-06
1.36774e-06
1.40584e-06
1.46697e-06
1.55644e-06
1.68298e-06
1.85636e-06
2.09043e-06
2.41149e-06
2.88461e-06
3.74192e-06
5.82388e-06
1.13206e-05
2.21071e-05
8.36024e-05
0.000106468
3.05782e-05
2.02304e-05
1.42518e-05
1.14429e-05
9.6181e-06
8.2765e-06
7.2833e-06
6.51882e-06
5.93426e-06
5.50028e-06
5.18911e-06
4.97474e-06
4.83985e-06
4.77464e-06
4.77452e-06
4.83952e-06
4.97426e-06
5.18862e-06
5.50002e-06
5.93452e-06
6.51941e-06
7.28405e-06
8.27732e-06
9.61962e-06
1.14452e-05
1.42566e-05
2.02428e-05
3.06114e-05
0.00010654
0.00111742
0.000168135
8.87381e-05
5.87213e-05
4.55673e-05
3.78713e-05
3.27463e-05
2.91048e-05
2.64091e-05
2.44102e-05
2.29615e-05
2.19294e-05
2.1207e-05
2.07465e-05
2.05219e-05
2.05214e-05
2.0745e-05
2.12044e-05
2.19255e-05
2.29563e-05
2.44047e-05
2.64019e-05
2.90952e-05
3.27309e-05
3.78539e-05
4.55512e-05
5.87138e-05
8.87564e-05
0.000168233
0.00111817
0.000949712
0.000140514
7.5822e-05
5.10967e-05
4.0184e-05
3.36849e-05
2.92657e-05
2.61345e-05
2.38636e-05
2.21767e-05
2.09025e-05
1.99586e-05
1.92963e-05
1.88756e-05
1.86717e-05
1.86728e-05
1.88791e-05
1.93024e-05
1.99677e-05
2.09152e-05
2.21928e-05
2.38842e-05
2.61596e-05
2.92973e-05
3.37175e-05
4.02106e-05
5.11038e-05
7.57754e-05
0.000140288
0.000947969
9.28544e-05
3.38086e-05
2.21622e-05
1.66986e-05
1.40913e-05
1.25262e-05
1.13359e-05
1.03177e-05
9.43466e-06
8.69228e-06
8.0939e-06
7.63458e-06
7.30459e-06
7.09245e-06
6.98909e-06
6.98972e-06
7.09425e-06
7.30728e-06
7.63772e-06
8.09686e-06
8.69441e-06
9.43566e-06
1.03171e-05
1.1333e-05
1.25203e-05
1.40824e-05
1.66853e-05
2.21366e-05
3.36843e-05
9.26755e-05
7.30325e-05
2.23384e-05
1.3482e-05
8.51508e-06
6.06573e-06
4.78099e-06
4.00419e-06
3.46185e-06
3.05319e-06
2.73668e-06
2.4946e-06
2.31586e-06
2.19136e-06
2.11294e-06
2.07505e-06
2.07506e-06
2.11292e-06
2.19117e-06
2.31522e-06
2.49312e-06
2.73391e-06
3.04909e-06
3.45665e-06
4.00052e-06
4.78109e-06
6.07064e-06
8.52107e-06
1.34699e-05
2.22843e-05
7.29553e-05
5.03905e-05
1.78857e-05
9.2917e-06
4.9208e-06
2.81801e-06
1.88481e-06
1.46522e-06
1.23924e-06
1.09637e-06
9.92679e-07
9.15375e-07
8.59155e-07
8.20302e-07
7.95907e-07
7.84146e-07
7.84096e-07
7.95741e-07
8.19985e-07
8.58623e-07
9.14567e-07
9.91602e-07
1.09517e-06
1.23817e-06
1.46596e-06
1.8898e-06
2.8286e-06
4.92995e-06
9.28391e-06
1.78502e-05
5.03724e-05
3.89289e-05
1.37826e-05
6.56719e-06
3.02626e-06
1.51335e-06
9.41875e-07
7.18783e-07
6.16333e-07
5.60084e-07
5.22587e-07
4.95583e-07
4.76173e-07
4.62704e-07
4.53689e-07
4.49193e-07
4.4914e-07
4.53535e-07
4.62503e-07
4.75898e-07
4.95241e-07
5.22228e-07
5.59833e-07
6.16449e-07
7.19782e-07
9.44634e-07
1.51961e-06
3.03146e-06
6.55977e-06
1.37624e-05
3.89381e-05
3.19813e-05
1.12747e-05
4.68758e-06
1.95953e-06
9.72555e-07
6.21805e-07
4.85026e-07
4.21462e-07
3.88123e-07
3.68195e-07
3.54897e-07
3.45684e-07
3.39521e-07
3.35741e-07
3.33896e-07
3.33851e-07
3.35612e-07
3.39335e-07
3.45496e-07
3.54714e-07
3.68074e-07
3.88162e-07
4.21799e-07
4.85704e-07
6.23035e-07
9.74104e-07
1.95963e-06
4.68028e-06
1.12644e-05
3.19978e-05
2.7377e-05
9.459e-06
3.46527e-06
1.37744e-06
7.182e-07
4.87278e-07
3.89058e-07
3.44088e-07
3.22011e-07
3.09775e-07
3.02255e-07
2.9734e-07
2.94137e-07
2.92202e-07
2.91273e-07
2.91243e-07
2.92117e-07
2.94017e-07
2.97218e-07
3.02166e-07
3.0977e-07
3.22155e-07
3.44428e-07
3.89518e-07
4.87732e-07
7.18388e-07
1.37581e-06
3.45903e-06
9.45493e-06
2.73935e-05
2.41173e-05
8.07487e-06
2.69939e-06
1.0648e-06
5.85086e-07
4.15423e-07
3.43e-07
3.10059e-07
2.93631e-07
2.84822e-07
2.79758e-07
2.76683e-07
2.74786e-07
2.73677e-07
2.73155e-07
2.73137e-07
2.73627e-07
2.7472e-07
2.76622e-07
2.79732e-07
2.84863e-07
2.93766e-07
3.10284e-07
3.43258e-07
4.15573e-07
5.84924e-07
1.06378e-06
2.69587e-06
8.07372e-06
2.41306e-05
2.16914e-05
7.00201e-06
2.20875e-06
8.81137e-07
5.09453e-07
3.74025e-07
3.18485e-07
2.92796e-07
2.79896e-07
2.73084e-07
2.69338e-07
2.67204e-07
2.65969e-07
2.65281e-07
2.64967e-07
2.64957e-07
2.65254e-07
2.65935e-07
2.67178e-07
2.69338e-07
2.73124e-07
2.79981e-07
2.92907e-07
3.18569e-07
3.74e-07
5.09234e-07
8.80471e-07
2.20687e-06
7.00246e-06
2.17009e-05
1.99055e-05
6.18955e-06
1.88386e-06
7.66983e-07
4.60137e-07
3.48893e-07
3.04107e-07
2.83205e-07
2.72707e-07
2.67233e-07
2.64315e-07
2.62734e-07
2.61871e-07
2.61416e-07
2.61216e-07
2.6121e-07
2.61402e-07
2.61854e-07
2.62723e-07
2.64318e-07
2.67255e-07
2.72743e-07
2.83234e-07
3.0409e-07
3.4878e-07
4.5991e-07
7.66588e-07
1.88304e-06
6.19095e-06
1.99122e-05
1.85907e-05
5.58912e-06
1.66448e-06
6.93729e-07
4.27977e-07
3.33562e-07
2.95358e-07
2.776e-07
2.68751e-07
2.64206e-07
2.61845e-07
2.60615e-07
2.59976e-07
2.59655e-07
2.59519e-07
2.59516e-07
2.59647e-07
2.59967e-07
2.60608e-07
2.61845e-07
2.64211e-07
2.68754e-07
2.77586e-07
2.95305e-07
3.3345e-07
4.27822e-07
6.93532e-07
1.66434e-06
5.59096e-06
1.85955e-05
1.76368e-05
5.15878e-06
1.51766e-06
6.45828e-07
4.07045e-07
3.23788e-07
2.89919e-07
2.74241e-07
2.6651e-07
2.62602e-07
2.60617e-07
2.59614e-07
2.59112e-07
2.5887e-07
2.58771e-07
2.58769e-07
2.58865e-07
2.59106e-07
2.59608e-07
2.60612e-07
2.62595e-07
2.66497e-07
2.74212e-07
2.89864e-07
3.23703e-07
4.06955e-07
6.45749e-07
1.51783e-06
5.16069e-06
1.76404e-05
1.69725e-05
4.86465e-06
1.42225e-06
6.15117e-07
3.93606e-07
3.17566e-07
2.86538e-07
2.72225e-07
2.65231e-07
2.61743e-07
2.60003e-07
2.59143e-07
2.58724e-07
2.58527e-07
2.58448e-07
2.58447e-07
2.58524e-07
2.58719e-07
2.59136e-07
2.59994e-07
2.6173e-07
2.65211e-07
2.72193e-07
2.86491e-07
3.17508e-07
3.93558e-07
6.15103e-07
1.4225e-06
4.86644e-06
1.69753e-05
1.65525e-05
4.68222e-06
1.36453e-06
5.969e-07
3.85581e-07
3.13856e-07
2.84554e-07
2.71074e-07
2.64529e-07
2.61296e-07
2.59704e-07
2.58927e-07
2.58555e-07
2.58381e-07
2.58313e-07
2.58312e-07
2.58378e-07
2.58549e-07
2.5892e-07
2.59693e-07
2.61281e-07
2.64507e-07
2.71043e-07
2.84514e-07
3.13814e-07
3.85553e-07
5.96904e-07
1.36477e-06
4.68377e-06
1.65548e-05
1.63503e-05
4.59755e-06
1.33774e-06
5.88406e-07
3.81827e-07
3.12118e-07
2.83631e-07
2.70548e-07
2.64216e-07
2.61104e-07
2.5958e-07
2.58842e-07
2.5849e-07
2.58327e-07
2.58263e-07
2.58262e-07
2.58324e-07
2.58484e-07
2.58834e-07
2.59568e-07
2.61088e-07
2.64193e-07
2.70517e-07
2.83594e-07
3.12079e-07
3.81802e-07
5.88401e-07
1.33789e-06
4.59861e-06
1.63523e-05
1.63504e-05
4.59763e-06
1.33776e-06
5.88413e-07
3.8183e-07
3.12118e-07
2.83631e-07
2.70547e-07
2.64216e-07
2.61104e-07
2.59579e-07
2.58841e-07
2.58489e-07
2.58326e-07
2.58261e-07
2.5826e-07
2.58323e-07
2.58484e-07
2.58833e-07
2.59568e-07
2.61087e-07
2.64191e-07
2.70514e-07
2.8359e-07
3.12075e-07
3.81797e-07
5.88398e-07
1.33789e-06
4.59866e-06
1.63526e-05
1.6553e-05
4.68253e-06
1.3646e-06
5.96921e-07
3.85587e-07
3.13857e-07
2.84553e-07
2.71073e-07
2.64528e-07
2.61295e-07
2.59701e-07
2.58924e-07
2.58551e-07
2.58377e-07
2.58308e-07
2.58308e-07
2.58375e-07
2.58546e-07
2.58917e-07
2.59691e-07
2.61278e-07
2.64502e-07
2.71036e-07
2.84503e-07
3.13799e-07
3.85539e-07
5.96897e-07
1.36477e-06
4.684e-06
1.65558e-05
1.69735e-05
4.86516e-06
1.42237e-06
6.15148e-07
3.93612e-07
3.17564e-07
2.86535e-07
2.72223e-07
2.65229e-07
2.6174e-07
2.59999e-07
2.59138e-07
2.58717e-07
2.58519e-07
2.5844e-07
2.58439e-07
2.58517e-07
2.58714e-07
2.59132e-07
2.59991e-07
2.61726e-07
2.65205e-07
2.72182e-07
2.86474e-07
3.17484e-07
3.93534e-07
6.1509e-07
1.42251e-06
4.86682e-06
1.69769e-05
1.76384e-05
5.15951e-06
1.5178e-06
6.45861e-07
4.07045e-07
3.2378e-07
2.89914e-07
2.74239e-07
2.66508e-07
2.62598e-07
2.60611e-07
2.59605e-07
2.59101e-07
2.58857e-07
2.58758e-07
2.58757e-07
2.58855e-07
2.59098e-07
2.59602e-07
2.60608e-07
2.62592e-07
2.66491e-07
2.742e-07
2.89842e-07
3.2367e-07
4.06918e-07
6.45732e-07
1.51784e-06
5.16121e-06
1.76427e-05
1.8593e-05
5.59007e-06
1.66465e-06
6.93749e-07
4.27962e-07
3.33546e-07
2.95351e-07
2.77598e-07
2.6875e-07
2.64202e-07
2.61836e-07
2.60601e-07
2.59959e-07
2.59636e-07
2.595e-07
2.59499e-07
2.59632e-07
2.59955e-07
2.60601e-07
2.61841e-07
2.64209e-07
2.68752e-07
2.77577e-07
2.95283e-07
3.33409e-07
4.27771e-07
6.93501e-07
1.66431e-06
5.59157e-06
1.85985e-05
1.99087e-05
6.19067e-06
1.88396e-06
7.66966e-07
4.60103e-07
3.48874e-07
3.04106e-07
2.83211e-07
2.7271e-07
2.67229e-07
2.64302e-07
2.62713e-07
2.61846e-07
2.61388e-07
2.61188e-07
2.61185e-07
2.6138e-07
2.61838e-07
2.62713e-07
2.64315e-07
2.67257e-07
2.72747e-07
2.83234e-07
3.04076e-07
3.48742e-07
4.59848e-07
7.66539e-07
1.88297e-06
6.1916e-06
1.9916e-05
2.16959e-05
7.00324e-06
2.2087e-06
8.81062e-07
5.09427e-07
3.74025e-07
3.18506e-07
2.92819e-07
2.79908e-07
2.7308e-07
2.6932e-07
2.67174e-07
2.65932e-07
2.65241e-07
2.64927e-07
2.64921e-07
2.65223e-07
2.65912e-07