/*--------------------------------*- C++ -*----------------------------------*\
| =========                 |                                                 |
| \\      /  F ield         | OpenFOAM: The Open Source CFD Toolbox           |
|  \\    /   O peration     | Version:  2312                                  |
|   \\  /    A nd           | Website:  www.openfoam.com                      |
|    \\/     M anipulation  |                                                 |
\*---------------------------------------------------------------------------*/
FoamFile
{
    version     2.0;
    format      ascii;
    arch        "LSB;label=32;scalar=64";
    class       volScalarField;
    location    "500";
    object      k;
}
// * * * * * * * * * * * * * * * * * * * * * * * * * * * * * * * * * * * * * //

dimensions      [0 2 -2 0 0 0 0];

internalField   nonuniform List<scalar> 
27000
(
0.000259106
0.00012947
0.000107416
9.55933e-05
9.00584e-05
8.6612e-05
8.39901e-05
8.17001e-05
7.97947e-05
7.82445e-05
7.69572e-05
7.59223e-05
7.51562e-05
7.46518e-05
7.44019e-05
7.44024e-05
7.46534e-05
7.51589e-05
7.59262e-05
7.69622e-05
7.82493e-05
7.98004e-05
8.17067e-05
8.39974e-05
8.66195e-05
9.00652e-05
9.55977e-05
0.000107416
0.000129463
0.000259088
9.82893e-05
2.15593e-05
2.82848e-05
3.06685e-05
3.24314e-05
3.35917e-05
3.43257e-05
3.47579e-05
3.49879e-05
3.51209e-05
3.5205e-05
3.52592e-05
3.5294e-05
3.53151e-05
3.53252e-05
3.53253e-05
3.53155e-05
3.52946e-05
3.52599e-05
3.52058e-05
3.51219e-05
3.4989e-05
3.4759e-05
3.43269e-05
3.35929e-05
3.24325e-05
3.06695e-05
2.82858e-05
2.15601e-05
9.82857e-05
0.000101407
3.49797e-05
2.88297e-05
2.72631e-05
2.79654e-05
2.88868e-05
2.96713e-05
3.03233e-05
3.08267e-05
3.12098e-05
3.15019e-05
3.17213e-05
3.18781e-05
3.19792e-05
3.20288e-05
3.20286e-05
3.19787e-05
3.18772e-05
3.172e-05
3.15005e-05
3.12083e-05
3.08254e-05
3.03224e-05
2.9671e-05
2.88872e-05
2.79664e-05
2.72645e-05
2.88301e-05
3.49757e-05
0.000101404
9.49024e-05
3.52829e-05
2.87144e-05
2.84665e-05
2.93231e-05
3.01531e-05
3.08196e-05
3.13467e-05
3.17579e-05
3.20721e-05
3.23099e-05
3.24869e-05
3.26128e-05
3.26938e-05
3.27334e-05
3.27331e-05
3.2693e-05
3.26115e-05
3.24851e-05
3.23079e-05
3.20703e-05
3.17568e-05
3.13463e-05
3.08202e-05
3.01549e-05
2.93257e-05
2.84685e-05
2.87157e-05
3.52824e-05
9.49017e-05
9.03191e-05
3.42341e-05
2.90039e-05
2.96407e-05
3.06268e-05
3.139e-05
3.19552e-05
3.23772e-05
3.2694e-05
3.29296e-05
3.31037e-05
3.32305e-05
3.33193e-05
3.33757e-05
3.34031e-05
3.34028e-05
3.33749e-05
3.3318e-05
3.3229e-05
3.31021e-05
3.29284e-05
3.26935e-05
3.23778e-05
3.19569e-05
3.13926e-05
3.06298e-05
2.96431e-05
2.9005e-05
3.42343e-05
9.03206e-05
8.65981e-05
3.39358e-05
2.94458e-05
3.04559e-05
3.14947e-05
3.22221e-05
3.27235e-05
3.30732e-05
3.33197e-05
3.34937e-05
3.36161e-05
3.37014e-05
3.37589e-05
3.37945e-05
3.38115e-05
3.38112e-05
3.37938e-05
3.37579e-05
3.37003e-05
3.36152e-05
3.34933e-05
3.332e-05
3.30744e-05
3.27256e-05
3.22248e-05
3.14973e-05
3.04577e-05
2.94465e-05
3.39361e-05
8.66e-05
8.34237e-05
3.39748e-05
3.0111e-05
3.11251e-05
3.21072e-05
3.27787e-05
3.32234e-05
3.35157e-05
3.37069e-05
3.38315e-05
3.39122e-05
3.3964e-05
3.39966e-05
3.40157e-05
3.40245e-05
3.40243e-05
3.40153e-05
3.3996e-05
3.39634e-05
3.39117e-05
3.38315e-05
3.37076e-05
3.3517e-05
3.32253e-05
3.27808e-05
3.21089e-05
3.11261e-05
3.01112e-05
3.39749e-05
8.34253e-05
8.06508e-05
3.41136e-05
3.07718e-05
3.16961e-05
3.25739e-05
3.31668e-05
3.35491e-05
3.37875e-05
3.39316e-05
3.40158e-05
3.40636e-05
3.40899e-05
3.41039e-05
3.41108e-05
3.41137e-05
3.41136e-05
3.41106e-05
3.41035e-05
3.40896e-05
3.40635e-05
3.40161e-05
3.39323e-05
3.37887e-05
3.35505e-05
3.31681e-05
3.25748e-05
3.16964e-05
3.07718e-05
3.41138e-05
8.06519e-05
7.8145e-05
3.42526e-05
3.13161e-05
3.21532e-05
3.293e-05
3.34431e-05
3.37623e-05
3.395e-05
3.40529e-05
3.41046e-05
3.41273e-05
3.41351e-05
3.41363e-05
3.41353e-05
3.41343e-05
3.41342e-05
3.41351e-05
3.41361e-05
3.41351e-05
3.41274e-05
3.4105e-05
3.40536e-05
3.39509e-05
3.37633e-05
3.34439e-05
3.29304e-05
3.21533e-05
3.13161e-05
3.42527e-05
7.81448e-05
7.60233e-05
3.43718e-05
3.17459e-05
3.25067e-05
3.31955e-05
3.36391e-05
3.39016e-05
3.40443e-05
3.41129e-05
3.41391e-05
3.41437e-05
3.41393e-05
3.41325e-05
3.41269e-05
3.41239e-05
3.41238e-05
3.41269e-05
3.41325e-05
3.41393e-05
3.41439e-05
3.41394e-05
3.41134e-05
3.40449e-05
3.39022e-05
3.36395e-05
3.31957e-05
3.25067e-05
3.1746e-05
3.43719e-05
7.60217e-05
7.42817e-05
3.44689e-05
3.20789e-05
3.27779e-05
3.33944e-05
3.37779e-05
3.39922e-05
3.40977e-05
3.4139e-05
3.41464e-05
3.41388e-05
3.41269e-05
3.4116e-05
3.41081e-05
3.41042e-05
3.41042e-05
3.41081e-05
3.4116e-05
3.4127e-05
3.4139e-05
3.41466e-05
3.41394e-05
3.40981e-05
3.39926e-05
3.37782e-05
3.33946e-05
3.27781e-05
3.20792e-05
3.44689e-05
7.4279e-05
7.29067e-05
3.45437e-05
3.23285e-05
3.29799e-05
3.35399e-05
3.38753e-05
3.40509e-05
3.41273e-05
3.41481e-05
3.41424e-05
3.41271e-05
3.41112e-05
3.40984e-05
3.409e-05
3.40859e-05
3.40859e-05
3.409e-05
3.40985e-05
3.41113e-05
3.41273e-05
3.41426e-05
3.41484e-05
3.41276e-05
3.40513e-05
3.38756e-05
3.35403e-05
3.29804e-05
3.23289e-05
3.45436e-05
7.29032e-05
7.18869e-05
3.45975e-05
3.25058e-05
3.31229e-05
3.36414e-05
3.3941e-05
3.40881e-05
3.41432e-05
3.41498e-05
3.41355e-05
3.41157e-05
3.4098e-05
3.40848e-05
3.40766e-05
3.40727e-05
3.40727e-05
3.40766e-05
3.40849e-05
3.40981e-05
3.41159e-05
3.41357e-05
3.41501e-05
3.41435e-05
3.40884e-05
3.39414e-05
3.36419e-05
3.31235e-05
3.25064e-05
3.45974e-05
7.18829e-05
7.12132e-05
3.46322e-05
3.26194e-05
3.32141e-05
3.37054e-05
3.39815e-05
3.41098e-05
3.41514e-05
3.41491e-05
3.41297e-05
3.41076e-05
3.40891e-05
3.40761e-05
3.40682e-05
3.40646e-05
3.40646e-05
3.40683e-05
3.40762e-05
3.40892e-05
3.41077e-05
3.41299e-05
3.41493e-05
3.41516e-05
3.41101e-05
3.39819e-05
3.3706e-05
3.32148e-05
3.26201e-05
3.46321e-05
7.12088e-05
7.08789e-05
3.46493e-05
3.26746e-05
3.32584e-05
3.37363e-05
3.40007e-05
3.41198e-05
3.41547e-05
3.41482e-05
3.41265e-05
3.41034e-05
3.40847e-05
3.40719e-05
3.40643e-05
3.40608e-05
3.40608e-05
3.40643e-05
3.4072e-05
3.40848e-05
3.41035e-05
3.41267e-05
3.41484e-05
3.4155e-05
3.41201e-05
3.40011e-05
3.37368e-05
3.32592e-05
3.26754e-05
3.46491e-05
7.08744e-05
7.08803e-05
3.46497e-05
3.26747e-05
3.32584e-05
3.37362e-05
3.40006e-05
3.41197e-05
3.41546e-05
3.41481e-05
3.41263e-05
3.41032e-05
3.40846e-05
3.40717e-05
3.40641e-05
3.40606e-05
3.40606e-05
3.40641e-05
3.40718e-05
3.40847e-05
3.41034e-05
3.41265e-05
3.41483e-05
3.41548e-05
3.412e-05
3.4001e-05
3.37367e-05
3.32591e-05
3.26754e-05
3.46495e-05
7.08759e-05
7.12173e-05
3.46334e-05
3.26194e-05
3.32139e-05
3.37051e-05
3.39812e-05
3.41095e-05
3.4151e-05
3.41487e-05
3.41293e-05
3.41071e-05
3.40886e-05
3.40755e-05
3.40676e-05
3.40639e-05
3.4064e-05
3.40676e-05
3.40756e-05
3.40887e-05
3.41073e-05
3.41295e-05
3.41489e-05
3.41512e-05
3.41098e-05
3.39815e-05
3.37056e-05
3.32145e-05
3.26201e-05
3.46332e-05
7.12131e-05
7.18937e-05
3.45995e-05
3.25059e-05
3.31226e-05
3.36409e-05
3.39405e-05
3.40876e-05
3.41427e-05
3.41492e-05
3.41349e-05
3.4115e-05
3.40971e-05
3.40838e-05
3.40755e-05
3.40716e-05
3.40716e-05
3.40756e-05
3.40839e-05
3.40972e-05
3.41152e-05
3.41351e-05
3.41495e-05
3.4143e-05
3.40878e-05
3.39407e-05
3.36412e-05
3.3123e-05
3.25065e-05
3.45994e-05
7.189e-05
7.29162e-05
3.45464e-05
3.23287e-05
3.29795e-05
3.35393e-05
3.38747e-05
3.40503e-05
3.41266e-05
3.41474e-05
3.41415e-05
3.41261e-05
3.411e-05
3.40971e-05
3.40886e-05
3.40844e-05
3.40844e-05
3.40886e-05
3.40972e-05
3.41101e-05
3.41263e-05
3.41418e-05
3.41477e-05
3.4127e-05
3.40506e-05
3.38748e-05
3.35395e-05
3.29797e-05
3.2329e-05
3.45464e-05
7.29132e-05
7.42937e-05
3.44725e-05
3.20792e-05
3.27774e-05
3.33938e-05
3.37773e-05
3.39916e-05
3.40971e-05
3.41382e-05
3.41454e-05
3.41376e-05
3.41255e-05
3.41143e-05
3.41064e-05
3.41023e-05
3.41023e-05
3.41064e-05
3.41144e-05
3.41257e-05
3.41379e-05
3.41458e-05
3.41387e-05
3.40976e-05
3.3992e-05
3.37775e-05
3.33938e-05
3.27774e-05
3.20793e-05
3.44725e-05
7.42917e-05
7.60377e-05
3.43762e-05
3.17464e-05
3.25064e-05
3.31951e-05
3.36387e-05
3.39012e-05
3.40439e-05
3.41122e-05
3.41381e-05
3.41424e-05
3.41376e-05
3.41306e-05
3.41248e-05
3.41217e-05
3.41216e-05
3.41248e-05
3.41307e-05
3.41378e-05
3.41427e-05
3.41387e-05
3.41129e-05
3.40446e-05
3.39019e-05
3.36391e-05
3.31951e-05
3.25062e-05
3.17463e-05
3.43762e-05
7.6037e-05
7.81618e-05
3.42579e-05
3.1317e-05
3.21533e-05
3.293e-05
3.34433e-05
3.37624e-05
3.39498e-05
3.40524e-05
3.41037e-05
3.41259e-05
3.41333e-05
3.41341e-05
3.41329e-05
3.41318e-05
3.41317e-05
3.41328e-05
3.41341e-05
3.41334e-05
3.41262e-05
3.41043e-05
3.40534e-05
3.3951e-05
3.37636e-05
3.34441e-05
3.29304e-05
3.21531e-05
3.13167e-05
3.42578e-05
7.81626e-05
8.06695e-05
3.412e-05
3.07735e-05
3.1697e-05
3.25748e-05
3.31677e-05
3.35498e-05
3.37879e-05
3.39313e-05
3.4015e-05
3.40622e-05
3.40879e-05
3.41015e-05
3.41082e-05
3.41109e-05
3.41108e-05
3.4108e-05
3.41012e-05
3.40877e-05
3.40623e-05
3.40156e-05
3.39325e-05
3.37895e-05
3.35516e-05
3.31693e-05
3.25758e-05
3.16972e-05
3.07731e-05
3.41197e-05
8.06717e-05
8.34412e-05
3.39822e-05
3.01139e-05
3.11272e-05
3.21093e-05
3.27806e-05
3.32249e-05
3.35165e-05
3.37069e-05
3.38307e-05
3.39107e-05
3.3962e-05
3.39941e-05
3.40129e-05
3.40215e-05
3.40214e-05
3.40125e-05
3.39935e-05
3.39614e-05
3.39104e-05
3.3831e-05
3.3708e-05
3.35183e-05
3.32274e-05
3.27832e-05
3.21113e-05
3.11282e-05
3.01137e-05
3.39817e-05
8.34435e-05
8.6616e-05
3.39447e-05
2.94502e-05
3.04596e-05
3.14981e-05
3.22251e-05
3.27256e-05
3.30744e-05
3.332e-05
3.34931e-05
3.36147e-05
3.36993e-05
3.37564e-05
3.37917e-05
3.38085e-05
3.38082e-05
3.37909e-05
3.37553e-05
3.36981e-05
3.36137e-05
3.34927e-05
3.33205e-05
3.30761e-05
3.27284e-05
3.22285e-05
3.15013e-05
3.04616e-05
2.94506e-05
3.39439e-05
8.66188e-05
9.03369e-05
3.42449e-05
2.90106e-05
2.9646e-05
3.06314e-05
3.13937e-05
3.19579e-05
3.23787e-05
3.26944e-05
3.2929e-05
3.31024e-05
3.32287e-05
3.33171e-05
3.33732e-05
3.34004e-05
3.34e-05
3.33722e-05
3.33155e-05
3.32269e-05
3.31006e-05
3.29277e-05
3.2694e-05
3.23796e-05
3.19602e-05
3.13972e-05
3.06353e-05
2.9649e-05
2.90114e-05
3.42435e-05
9.03392e-05
9.49193e-05
3.52955e-05
2.87238e-05
2.84727e-05
2.93285e-05
3.01572e-05
3.08226e-05
3.13486e-05
3.17589e-05
3.20722e-05
3.23094e-05
3.2486e-05
3.26117e-05
3.26924e-05
3.27317e-05
3.27314e-05
3.26913e-05
3.26099e-05
3.24838e-05
3.2307e-05
3.207e-05
3.17574e-05
3.13482e-05
3.08235e-05
3.01597e-05
2.9332e-05
2.84756e-05
2.87249e-05
3.52926e-05
9.4919e-05
0.000101422
3.49914e-05
2.88422e-05
2.72715e-05
2.7972e-05
2.88922e-05
2.96762e-05
3.03275e-05
3.08301e-05
3.12126e-05
3.15045e-05
3.17236e-05
3.18802e-05
3.1981e-05
3.20304e-05
3.20301e-05
3.19802e-05
3.18788e-05
3.17217e-05
3.15022e-05
3.12103e-05
3.0828e-05
3.03259e-05
2.96754e-05
2.88924e-05
2.79734e-05
2.72737e-05
2.88426e-05
3.49836e-05
0.000101419
9.83016e-05
2.1564e-05
2.82939e-05
3.06798e-05
3.24441e-05
3.3605e-05
3.43394e-05
3.47716e-05
3.50015e-05
3.51342e-05
3.52183e-05
3.52727e-05
3.53076e-05
3.53286e-05
3.53386e-05
3.53387e-05
3.53288e-05
3.53079e-05
3.52731e-05
3.52187e-05
3.51344e-05
3.50017e-05
3.47717e-05
3.43393e-05
3.36048e-05
3.2444e-05
3.06801e-05
2.82947e-05
2.15644e-05
9.82949e-05
0.000259145
0.000129496
0.000107442
9.56194e-05
9.00856e-05
8.66401e-05
8.4019e-05
8.17294e-05
7.98245e-05
7.82753e-05
7.69934e-05
7.59595e-05
7.51933e-05
7.4689e-05
7.44391e-05
7.44398e-05
7.4691e-05
7.51967e-05
7.59642e-05
7.69994e-05
7.8281e-05
7.98311e-05
8.1737e-05
8.40272e-05
8.66484e-05
9.00926e-05
9.56229e-05
0.000107439
0.000129484
0.000259115
0.000210246
0.000106643
9.2597e-05
8.5004e-05
8.25344e-05
8.12885e-05
8.04188e-05
7.95029e-05
7.86492e-05
7.79527e-05
7.74813e-05
7.71727e-05
7.69499e-05
7.68018e-05
7.67272e-05
7.67261e-05
7.67985e-05
7.69443e-05
7.71644e-05
7.74702e-05
7.79413e-05
7.8635e-05
7.9485e-05
8.03924e-05
8.12618e-05
8.25131e-05
8.4995e-05
9.26092e-05
0.000106687
0.000210347
7.78145e-05
2.33838e-05
4.09316e-05
4.17827e-05
4.30965e-05
4.33964e-05
4.31113e-05
4.27762e-05
4.22967e-05
4.17888e-05
4.13395e-05
4.0986e-05
4.07303e-05
4.05649e-05
4.04838e-05
4.04836e-05
4.05644e-05
4.07296e-05
4.09853e-05
4.13392e-05
4.17889e-05
4.22968e-05
4.27759e-05
4.31112e-05
4.33995e-05
4.31042e-05
4.17951e-05
4.0953e-05
2.34027e-05
7.78518e-05
8.97972e-05
5.0035e-05
4.07932e-05
3.28911e-05
3.01622e-05
2.9582e-05
2.94172e-05
2.91808e-05
2.89573e-05
2.87606e-05
2.86002e-05
2.84807e-05
2.84017e-05
2.83545e-05
2.83325e-05
2.83332e-05
2.83567e-05
2.84058e-05
2.8487e-05
2.86082e-05
2.87688e-05
2.89652e-05
2.91876e-05
2.94219e-05
2.95828e-05
3.01587e-05
3.28883e-05
4.08078e-05
5.00955e-05
8.98207e-05
8.59587e-05
4.90185e-05
3.60155e-05
2.84999e-05
2.52137e-05
2.45628e-05
2.47539e-05
2.50676e-05
2.53473e-05
2.55973e-05
2.58103e-05
2.59768e-05
2.6099e-05
2.61793e-05
2.62194e-05
2.62208e-05
2.61835e-05
2.61062e-05
2.59866e-05
2.58219e-05
2.56084e-05
2.53547e-05
2.50715e-05
2.47521e-05
2.45536e-05
2.51988e-05
2.84913e-05
3.60234e-05
4.90567e-05
8.59652e-05
8.44293e-05
4.50775e-05
3.2234e-05
2.60989e-05
2.42279e-05
2.41807e-05
2.46617e-05
2.51862e-05
2.56294e-05
2.59891e-05
2.62745e-05
2.6491e-05
2.66461e-05
2.67458e-05
2.6795e-05
2.67963e-05
2.67496e-05
2.66523e-05
2.64989e-05
2.62827e-05
2.59958e-05
2.56325e-05
2.5184e-05
2.46522e-05
2.41644e-05
2.42122e-05
2.60894e-05
3.22356e-05
4.50999e-05
8.44221e-05
8.32822e-05
4.18933e-05
2.9976e-05
2.51832e-05
2.44193e-05
2.48283e-05
2.54415e-05
2.60034e-05
2.64625e-05
2.68225e-05
2.70983e-05
2.73036e-05
2.74487e-05
2.75414e-05
2.75869e-05
2.75878e-05
2.75442e-05
2.7453e-05
2.73085e-05
2.71028e-05
2.68249e-05
2.64613e-05
2.59973e-05
2.54302e-05
2.48136e-05
2.44055e-05
2.51771e-05
2.99783e-05
4.19053e-05
8.32727e-05
8.21045e-05
3.99115e-05
2.83469e-05
2.4898e-05
2.48933e-05
2.55476e-05
2.62173e-05
2.67754e-05
2.72128e-05
2.7545e-05
2.77919e-05
2.79708e-05
2.80946e-05
2.81725e-05
2.82104e-05
2.8211e-05
2.81743e-05
2.80971e-05
2.79734e-05
2.77937e-05
2.75448e-05
2.72097e-05
2.6769e-05
2.62081e-05
2.55376e-05
2.48861e-05
2.48968e-05
2.835e-05
3.99144e-05
8.20953e-05
8.11001e-05
3.86763e-05
2.73832e-05
2.49324e-05
2.53625e-05
2.61521e-05
2.68421e-05
2.73831e-05
2.77897e-05
2.80873e-05
2.83003e-05
2.84492e-05
2.8549e-05
2.86103e-05
2.86396e-05
2.864e-05
2.86113e-05
2.85503e-05
2.84503e-05
2.83005e-05
2.8086e-05
2.77865e-05
2.73781e-05
2.68362e-05
2.6147e-05
2.53607e-05
2.4935e-05
2.73865e-05
3.86774e-05
8.10919e-05
8.04491e-05
3.78441e-05
2.69128e-05
2.51891e-05
2.58135e-05
2.66426e-05
2.73241e-05
2.78369e-05
2.82078e-05
2.84684e-05
2.8647e-05
2.87662e-05
2.88427e-05
2.8888e-05
2.89091e-05
2.89093e-05
2.88885e-05
2.88432e-05
2.87664e-05
2.86466e-05
2.8467e-05
2.82053e-05
2.78338e-05
2.73211e-05
2.6641e-05
2.58145e-05
2.51926e-05
2.69152e-05
3.78442e-05
8.04437e-05
7.98757e-05
3.72629e-05
2.66939e-05
2.54804e-05
2.62066e-05
2.70346e-05
2.76896e-05
2.81669e-05
2.84998e-05
2.87239e-05
2.88699e-05
2.89619e-05
2.90176e-05
2.90488e-05
2.90628e-05
2.90629e-05
2.9049e-05
2.90177e-05
2.89618e-05
2.88693e-05
2.87228e-05
2.84982e-05
2.81653e-05
2.76885e-05
2.70347e-05
2.62084e-05
2.54831e-05
2.66951e-05
3.72622e-05
7.98727e-05
7.93737e-05
3.68537e-05
2.66035e-05
2.57378e-05
2.652e-05
2.73366e-05
2.79606e-05
2.84013e-05
2.86977e-05
2.88882e-05
2.90054e-05
2.90741e-05
2.91125e-05
2.91323e-05
2.91406e-05
2.91406e-05
2.91324e-05
2.91125e-05
2.9074e-05
2.9005e-05
2.88876e-05
2.86969e-05
2.84007e-05
2.79604e-05
2.73372e-05
2.65214e-05
2.57392e-05
2.66035e-05
3.68527e-05
7.93724e-05
7.89552e-05
3.65697e-05
2.658e-05
2.59495e-05
2.67605e-05
2.7561e-05
2.81555e-05
2.85634e-05
2.88278e-05
2.89899e-05
2.90833e-05
2.91335e-05
2.91585e-05
2.91696e-05
2.91737e-05
2.91737e-05
2.91696e-05
2.91584e-05
2.91334e-05
2.90831e-05
2.89896e-05
2.88276e-05
2.85634e-05
2.81558e-05
2.75617e-05
2.67613e-05
2.59497e-05
2.65791e-05
3.65684e-05
7.89549e-05
7.86308e-05
3.63798e-05
2.65874e-05
2.61121e-05
2.6936e-05
2.77199e-05
2.82896e-05
2.86708e-05
2.89099e-05
2.905e-05
2.91255e-05
2.91622e-05
2.91775e-05
2.91827e-05
2.91839e-05
2.91839e-05
2.91827e-05
2.91776e-05
2.91622e-05
2.91255e-05
2.905e-05
2.891e-05
2.8671e-05
2.82901e-05
2.77204e-05
2.69362e-05
2.61115e-05
2.65859e-05
3.63782e-05
7.86312e-05
7.84091e-05
3.62641e-05
2.66034e-05
2.62227e-05
2.70512e-05
2.78219e-05
2.83736e-05
2.8736e-05
2.89578e-05
2.9083e-05
2.91467e-05
2.91746e-05
2.91839e-05
2.91853e-05
2.91847e-05
2.91847e-05
2.91853e-05
2.91839e-05
2.91747e-05
2.91469e-05
2.90832e-05
2.89581e-05
2.87365e-05
2.83741e-05
2.78223e-05
2.70511e-05
2.62216e-05
2.66015e-05
3.62623e-05
7.84096e-05
7.8296e-05
3.62108e-05
2.66149e-05
2.62786e-05
2.71084e-05
2.78719e-05
2.84141e-05
2.87669e-05
2.89799e-05
2.90976e-05
2.91555e-05
2.9179e-05
2.91854e-05
2.91851e-05
2.91837e-05
2.91837e-05
2.91851e-05
2.91855e-05
2.91792e-05
2.91557e-05
2.90979e-05
2.89803e-05
2.87674e-05
2.84146e-05
2.78722e-05
2.71083e-05
2.62774e-05
2.66128e-05
3.62087e-05
7.82965e-05
7.82956e-05
3.62109e-05
2.6615e-05
2.62788e-05
2.71087e-05
2.78721e-05
2.84143e-05
2.87671e-05
2.89801e-05
2.90978e-05
2.91557e-05
2.91793e-05
2.91857e-05
2.91853e-05
2.9184e-05
2.9184e-05
2.91854e-05
2.91858e-05
2.91794e-05
2.91559e-05
2.90981e-05
2.89805e-05
2.87677e-05
2.8415e-05
2.78726e-05
2.71087e-05
2.62778e-05
2.6613e-05
3.62086e-05
7.82957e-05
7.84077e-05
3.62644e-05
2.66038e-05
2.62233e-05
2.70519e-05
2.78226e-05
2.83742e-05
2.87366e-05
2.89584e-05
2.90836e-05
2.91473e-05
2.91753e-05
2.91846e-05
2.91861e-05
2.91855e-05
2.91855e-05
2.91861e-05
2.91847e-05
2.91753e-05
2.91475e-05
2.90838e-05
2.89588e-05
2.87372e-05
2.8375e-05
2.78234e-05
2.70523e-05
2.62228e-05
2.66021e-05
3.62622e-05
7.84071e-05
7.86284e-05
3.63803e-05
2.65883e-05
2.61133e-05
2.69371e-05
2.7721e-05
2.82906e-05
2.86717e-05
2.89108e-05
2.90509e-05
2.91266e-05
2.91633e-05
2.91788e-05
2.9184e-05
2.91852e-05
2.91852e-05
2.9184e-05
2.91788e-05
2.91633e-05
2.91266e-05
2.9051e-05
2.89111e-05
2.86722e-05
2.82915e-05
2.77222e-05
2.69382e-05
2.61135e-05
2.6587e-05
3.63781e-05
7.86269e-05
7.89515e-05
3.65704e-05
2.65813e-05
2.59513e-05
2.67623e-05
2.75625e-05
2.81568e-05
2.85645e-05
2.88289e-05
2.89911e-05
2.90847e-05
2.91351e-05
2.91602e-05
2.91715e-05
2.91756e-05
2.91756e-05
2.91715e-05
2.91602e-05
2.9135e-05
2.90845e-05
2.89909e-05
2.88289e-05
2.85648e-05
2.81577e-05
2.7564e-05
2.67641e-05
2.59527e-05
2.65807e-05
3.65682e-05
7.89488e-05
7.93686e-05
3.68546e-05
2.66053e-05
2.57404e-05
2.65223e-05
2.73384e-05
2.7962e-05
2.84026e-05
2.86989e-05
2.88897e-05
2.90072e-05
2.90763e-05
2.91149e-05
2.91348e-05
2.91432e-05
2.91432e-05
2.91348e-05
2.91148e-05
2.9076e-05
2.90067e-05
2.8889e-05
2.86983e-05
2.84022e-05
2.79624e-05
2.73399e-05
2.65249e-05
2.57431e-05
2.66057e-05
3.68524e-05
7.93643e-05
7.9869e-05
3.7264e-05
2.66964e-05
2.54836e-05
2.62092e-05
2.70363e-05
2.76907e-05
2.81679e-05
2.8501e-05
2.87255e-05
2.88721e-05
2.89646e-05
2.90206e-05
2.90521e-05
2.90662e-05
2.90663e-05
2.90522e-05
2.90206e-05
2.89643e-05
2.88713e-05
2.87243e-05
2.84995e-05
2.81664e-05
2.76901e-05
2.70372e-05
2.62121e-05
2.54878e-05
2.6698e-05
3.7262e-05
7.98624e-05
8.04402e-05
3.78455e-05
2.69156e-05
2.51924e-05
2.58155e-05
2.66435e-05
2.73244e-05
2.78374e-05
2.82088e-05
2.84702e-05
2.86497e-05
2.87695e-05
2.88466e-05
2.88922e-05
2.89134e-05
2.89135e-05
2.88925e-05
2.88469e-05
2.87695e-05
2.8649e-05
2.84686e-05
2.82062e-05
2.78342e-05
2.73217e-05
2.66426e-05
2.58177e-05
2.51974e-05
2.69186e-05
3.78441e-05
8.0431e-05
8.10894e-05
3.86779e-05
2.73856e-05
2.49345e-05
2.53627e-05
2.6151e-05
2.68409e-05
2.73827e-05
2.77905e-05
2.80894e-05
2.83036e-05
2.84534e-05
2.85538e-05
2.86154e-05
2.86449e-05
2.86452e-05
2.86163e-05
2.85549e-05
2.84542e-05
2.83035e-05
2.80877e-05
2.7787e-05
2.73775e-05
2.68351e-05
2.61465e-05
2.53619e-05
2.49384e-05
2.73895e-05
3.86776e-05
8.10772e-05
8.20977e-05
3.99124e-05
2.83474e-05
2.48972e-05
2.48902e-05
2.55437e-05
2.62142e-05
2.67741e-05
2.72135e-05
2.75477e-05
2.77961e-05
2.7976e-05
2.81005e-05
2.81787e-05
2.82167e-05
2.82173e-05
2.81804e-05
2.81028e-05
2.79784e-05
2.77975e-05
2.7547e-05
2.721e-05
2.67673e-05
2.62048e-05
2.55338e-05
2.48835e-05
2.48968e-05
2.83509e-05
3.99139e-05
8.20853e-05
8.32738e-05
4.18891e-05
2.9975e-05
2.51786e-05
2.44119e-05
2.48212e-05
2.54367e-05
2.60017e-05
2.64638e-05
2.68262e-05
2.71037e-05
2.731e-05
2.74557e-05
2.75486e-05
2.75941e-05
2.75951e-05
2.75514e-05
2.74599e-05
2.73149e-05
2.7108e-05
2.68283e-05
2.64621e-05
2.59951e-05
2.5425e-05
2.48062e-05
2.43981e-05
2.51726e-05
2.99774e-05
4.19001e-05
8.32612e-05
8.44168e-05
4.50759e-05
3.22314e-05
2.60913e-05
2.42182e-05
2.41717e-05
2.46567e-05
2.51854e-05
2.5632e-05
2.59942e-05
2.62812e-05
2.64984e-05
2.66537e-05
2.67536e-05
2.68029e-05
2.68042e-05
2.67576e-05
2.66602e-05
2.65066e-05
2.62896e-05
2.6001e-05
2.56349e-05
2.51827e-05
2.46464e-05
2.41545e-05
2.42011e-05
2.60807e-05
3.22327e-05
4.5097e-05
8.44062e-05
8.59504e-05
4.90223e-05
3.60105e-05
2.84934e-05
2.52039e-05
2.45562e-05
2.47514e-05
2.50688e-05
2.53511e-05
2.56035e-05
2.58173e-05
2.59837e-05
2.61058e-05
2.61863e-05
2.62268e-05
2.62283e-05
2.61911e-05
2.61138e-05
2.59945e-05
2.58298e-05
2.56154e-05
2.5359e-05
2.50725e-05
2.47488e-05
2.45454e-05
2.51869e-05
2.84836e-05
3.60174e-05
4.90589e-05
8.59534e-05
8.97985e-05
5.00476e-05
4.07943e-05
3.28904e-05
3.01603e-05
2.9581e-05
2.94169e-05
2.91826e-05
2.89605e-05
2.87643e-05
2.86031e-05
2.84829e-05
2.84038e-05
2.83575e-05
2.83362e-05
2.8337e-05
2.83604e-05
2.8409e-05
2.84906e-05
2.86127e-05
2.87738e-05
2.89695e-05
2.91901e-05
2.94216e-05
2.95812e-05
3.01556e-05
3.28866e-05
4.08083e-05
5.01032e-05
8.98195e-05
7.78163e-05
2.339e-05
4.09374e-05
4.1785e-05
4.30934e-05
4.33904e-05
4.31097e-05
4.2776e-05
4.22977e-05
4.17903e-05
4.13408e-05
4.09869e-05
4.0731e-05
4.05655e-05
4.04843e-05
4.04841e-05
4.0565e-05
4.07302e-05
4.09861e-05
4.13405e-05
4.17906e-05
4.22979e-05
4.2776e-05
4.31101e-05
4.33952e-05
4.31023e-05
4.17997e-05
4.09619e-05
2.34123e-05
7.7854e-05
0.000210239
0.000106633
9.2579e-05
8.49808e-05
8.2508e-05
8.12617e-05
8.03942e-05
7.94873e-05
7.86357e-05
7.79392e-05
7.74582e-05
7.71492e-05
7.69269e-05
7.67792e-05
7.67047e-05
7.67035e-05
7.67755e-05
7.69205e-05
7.71399e-05
7.74461e-05
7.79271e-05
7.86211e-05
7.94693e-05
8.03683e-05
8.12361e-05
8.24882e-05
8.49737e-05
9.25928e-05
0.000106676
0.000210337
0.000188606
9.45937e-05
8.33559e-05
7.74545e-05
7.58771e-05
7.51617e-05
7.45972e-05
7.39877e-05
7.35025e-05
7.31133e-05
7.27599e-05
7.24588e-05
7.22378e-05
7.20948e-05
7.20258e-05
7.20289e-05
7.21041e-05
7.22538e-05
7.24819e-05
7.27906e-05
7.31503e-05
7.35463e-05
7.40369e-05
7.4653e-05
7.52121e-05
7.59118e-05
7.74618e-05
8.33205e-05
9.44889e-05
0.000188367
7.10206e-05
3.09042e-05
5.14012e-05
5.45104e-05
5.74539e-05
5.96594e-05
6.08484e-05
6.09191e-05
6.02731e-05
5.92731e-05
5.82086e-05
5.72585e-05
5.65129e-05
5.60084e-05
5.57566e-05
5.57601e-05
5.60184e-05
5.65281e-05
5.7277e-05
5.82278e-05
5.92907e-05
6.02879e-05
6.0926e-05
6.08444e-05
5.9642e-05
5.74235e-05
5.44687e-05
5.13425e-05
3.07944e-05
7.09252e-05
8.20696e-05
5.70422e-05
5.08916e-05
4.46522e-05
4.02942e-05
3.80026e-05
3.6645e-05
3.56586e-05
3.4864e-05
3.41359e-05
3.34899e-05
3.29662e-05
3.2578e-05
3.23252e-05
3.22015e-05
3.22015e-05
3.23252e-05
3.25773e-05
3.29643e-05
3.34863e-05
3.41303e-05
3.48547e-05
3.56354e-05
3.66289e-05
3.80026e-05
4.03138e-05
4.46732e-05
5.08635e-05
5.69037e-05
8.20098e-05
7.87321e-05
6.02118e-05
4.90413e-05
3.68715e-05
2.99656e-05
2.7045e-05
2.60159e-05
2.56553e-05
2.54755e-05
2.5277e-05
2.50686e-05
2.48995e-05
2.47778e-05
2.47009e-05
2.46635e-05
2.46615e-05
2.46947e-05
2.4767e-05
2.48841e-05
2.50497e-05
2.52576e-05
2.54626e-05
2.56471e-05
2.60191e-05
2.70677e-05
3.00269e-05
3.69144e-05
4.90128e-05
6.01105e-05
7.87128e-05
7.7259e-05
5.83021e-05
4.38887e-05
3.15092e-05
2.54812e-05
2.3044e-05
2.22589e-05
2.21766e-05
2.22989e-05
2.24394e-05
2.25517e-05
2.26499e-05
2.27263e-05
2.27794e-05
2.28058e-05
2.28032e-05
2.27716e-05
2.27134e-05
2.26333e-05
2.25353e-05
2.24272e-05
2.2294e-05
2.21825e-05
2.22808e-05
2.30817e-05
2.55137e-05
3.15381e-05
4.3858e-05
5.82324e-05
7.72718e-05
7.63812e-05
5.66668e-05
3.86177e-05
2.79704e-05
2.3441e-05
2.17853e-05
2.15244e-05
2.17566e-05
2.20903e-05
2.2393e-05
2.26331e-05
2.2816e-05
2.29484e-05
2.30346e-05
2.30764e-05
2.30744e-05
2.30286e-05
2.29391e-05
2.28049e-05
2.26233e-05
2.23884e-05
2.20942e-05
2.17725e-05
2.1553e-05
2.18175e-05
2.34686e-05
2.79759e-05
3.8583e-05
5.6628e-05
7.64085e-05
7.57971e-05
5.44879e-05
3.45622e-05
2.58534e-05
2.24524e-05
2.16289e-05
2.17852e-05
2.21819e-05
2.25884e-05
2.29353e-05
2.32088e-05
2.34137e-05
2.35589e-05
2.36515e-05
2.36961e-05
2.36947e-05
2.36477e-05
2.35535e-05
2.34081e-05
2.32053e-05
2.29365e-05
2.25966e-05
2.21984e-05
2.18079e-05
2.16519e-05
2.24648e-05
2.58478e-05
3.45309e-05
5.44761e-05
7.58288e-05
7.53027e-05
5.21687e-05
3.20159e-05
2.45807e-05
2.2056e-05
2.18375e-05
2.22352e-05
2.27254e-05
2.31656e-05
2.3523e-05
2.37974e-05
2.39987e-05
2.41385e-05
2.42263e-05
2.42682e-05
2.42674e-05
2.42242e-05
2.41357e-05
2.39964e-05
2.37971e-05
2.35264e-05
2.31735e-05
2.27375e-05
2.22488e-05
2.18473e-05
2.20559e-05
2.45689e-05
3.20069e-05
5.21699e-05
7.53315e-05
7.47684e-05
4.99056e-05
3.03617e-05
2.37125e-05
2.19438e-05
2.21215e-05
2.26658e-05
2.3208e-05
2.36615e-05
2.4015e-05
2.42784e-05
2.44666e-05
2.45943e-05
2.46729e-05
2.47101e-05
2.47097e-05
2.46719e-05
2.45932e-05
2.44661e-05
2.42794e-05
2.40182e-05
2.3667e-05
2.32149e-05
2.26715e-05
2.21222e-05
2.19365e-05
2.37012e-05
3.03578e-05
4.99115e-05
7.47912e-05
7.43377e-05
4.79149e-05
2.92599e-05
2.32485e-05
2.20427e-05
2.24188e-05
2.30367e-05
2.36e-05
2.40514e-05
2.43921e-05
2.46384e-05
2.48094e-05
2.49221e-05
2.49899e-05
2.50215e-05
2.50213e-05
2.49895e-05
2.49217e-05
2.48095e-05
2.46394e-05
2.43942e-05
2.40543e-05
2.36027e-05
2.30374e-05
2.24155e-05
2.20346e-05
2.32399e-05
2.92581e-05
4.79237e-05
7.43551e-05
7.40046e-05
4.62904e-05
2.85116e-05
2.30148e-05
2.22055e-05
2.26916e-05
2.33407e-05
2.39049e-05
2.43439e-05
2.46662e-05
2.48927e-05
2.50451e-05
2.51425e-05
2.51994e-05
2.52254e-05
2.52253e-05
2.51992e-05
2.51424e-05
2.50452e-05
2.48932e-05
2.46672e-05
2.43448e-05
2.3905e-05
2.3339e-05
2.26871e-05
2.21988e-05
2.30092e-05
2.85111e-05
4.63005e-05
7.40177e-05
7.37559e-05
4.50513e-05
2.80012e-05
2.29e-05
2.23653e-05
2.29178e-05
2.35778e-05
2.41328e-05
2.45546e-05
2.4857e-05
2.50636e-05
2.51984e-05
2.52817e-05
2.53288e-05
2.53498e-05
2.53498e-05
2.53287e-05
2.52816e-05
2.51984e-05
2.50637e-05
2.4857e-05
2.45543e-05
2.41315e-05
2.35751e-05
2.29135e-05
2.23603e-05
2.28969e-05
2.80019e-05
4.50615e-05
7.3766e-05
7.35801e-05
4.41746e-05
2.76648e-05
2.28448e-05
2.24945e-05
2.30884e-05
2.37505e-05
2.42938e-05
2.46987e-05
2.49829e-05
2.51723e-05
2.52923e-05
2.5364e-05
2.54032e-05
2.54202e-05
2.54201e-05
2.5403e-05
2.53638e-05
2.52921e-05
2.51719e-05
2.49822e-05
2.46976e-05
2.42919e-05
2.37477e-05
2.30848e-05
2.2491e-05
2.28435e-05
2.76663e-05
4.41839e-05
7.35884e-05
7.34699e-05
4.3627e-05
2.74677e-05
2.28217e-05
2.25837e-05
2.32017e-05
2.38628e-05
2.43962e-05
2.47879e-05
2.50585e-05
2.52354e-05
2.53448e-05
2.54083e-05
2.5442e-05
2.54562e-05
2.54562e-05
2.54418e-05
2.5408e-05
2.53444e-05
2.52348e-05
2.50575e-05
2.47865e-05
2.4394e-05
2.386e-05
2.31986e-05
2.25811e-05
2.28212e-05
2.74692e-05
4.36342e-05
7.34769e-05
7.34206e-05
4.33973e-05
2.7383e-05
2.28158e-05
2.26291e-05
2.3258e-05
2.3918e-05
2.44458e-05
2.48305e-05
2.50939e-05
2.52642e-05
2.5368e-05
2.54273e-05
2.54581e-05
2.5471e-05
2.54709e-05
2.54579e-05
2.5427e-05
2.53675e-05
2.52634e-05
2.50927e-05
2.48288e-05
2.44435e-05
2.39152e-05
2.3255e-05
2.26267e-05
2.28151e-05
2.73835e-05
4.3399e-05
7.34267e-05
7.34211e-05
4.33975e-05
2.73833e-05
2.28159e-05
2.26291e-05
2.32579e-05
2.39179e-05
2.44457e-05
2.48304e-05
2.50938e-05
2.52641e-05
2.53679e-05
2.54272e-05
2.5458e-05
2.54708e-05
2.54708e-05
2.54578e-05
2.54269e-05
2.53674e-05
2.52633e-05
2.50926e-05
2.48287e-05
2.44433e-05
2.39149e-05
2.32547e-05
2.26264e-05
2.28148e-05
2.73835e-05
4.3399e-05
7.34277e-05
7.34715e-05
4.36282e-05
2.74685e-05
2.2822e-05
2.25835e-05
2.32014e-05
2.38625e-05
2.43959e-05
2.47877e-05
2.50583e-05
2.52351e-05
2.53445e-05
2.54079e-05
2.54415e-05
2.54558e-05
2.54557e-05
2.54414e-05
2.54077e-05
2.53441e-05
2.52345e-05
2.50572e-05
2.4786e-05
2.43935e-05
2.38593e-05
2.31976e-05
2.258e-05
2.28204e-05
2.74692e-05
4.3635e-05
7.34798e-05
7.3583e-05
4.41768e-05
2.76661e-05
2.2845e-05
2.24941e-05
2.30878e-05
2.375e-05
2.42933e-05
2.46982e-05
2.49824e-05
2.51718e-05
2.52916e-05
2.53632e-05
2.54024e-05
2.54194e-05
2.54193e-05
2.54023e-05
2.53631e-05
2.52915e-05
2.51714e-05
2.49817e-05
2.46969e-05
2.4291e-05
2.37465e-05
2.30832e-05
2.24892e-05
2.28421e-05
2.76664e-05
4.4185e-05
7.35931e-05
7.37601e-05
4.50544e-05
2.80027e-05
2.28998e-05
2.23643e-05
2.29168e-05
2.3577e-05
2.41322e-05
2.45541e-05
2.48563e-05
2.50628e-05
2.51974e-05
2.52805e-05
2.53275e-05
2.53486e-05
2.53486e-05
2.53276e-05
2.52806e-05
2.51976e-05
2.5063e-05
2.48563e-05
2.45535e-05
2.41305e-05
2.35736e-05
2.29114e-05
2.23577e-05
2.28949e-05
2.80019e-05
4.50628e-05
7.37724e-05
7.40105e-05
4.62941e-05
2.85128e-05
2.30138e-05
2.22039e-05
2.26903e-05
2.33399e-05
2.39043e-05
2.43433e-05
2.46654e-05
2.48915e-05
2.50436e-05
2.51408e-05
2.51976e-05
2.52236e-05
2.52236e-05
2.51976e-05
2.5141e-05
2.50441e-05
2.48923e-05
2.46664e-05
2.43441e-05
2.3904e-05
2.33374e-05
2.26847e-05
2.21956e-05
2.30065e-05
2.8511e-05
4.63017e-05
7.40255e-05
7.43457e-05
4.7919e-05
2.92609e-05
2.32466e-05
2.20404e-05
2.24174e-05
2.30361e-05
2.35996e-05
2.40509e-05
2.4391e-05
2.46368e-05
2.48073e-05
2.49197e-05
2.49873e-05
2.50189e-05
2.50189e-05
2.49873e-05
2.49199e-05
2.4808e-05
2.46383e-05
2.43935e-05
2.40538e-05
2.3602e-05
2.30361e-05
2.24131e-05
2.2031e-05
2.32364e-05
2.92579e-05
4.79244e-05
7.43642e-05
7.47789e-05
4.99098e-05
3.03622e-05
2.37097e-05
2.19414e-05
2.21208e-05
2.26661e-05
2.32084e-05
2.36612e-05
2.40138e-05
2.42762e-05
2.44638e-05
2.4591e-05
2.46694e-05
2.47066e-05
2.47064e-05
2.46689e-05
2.45906e-05