/*--------------------------------*- C++ -*----------------------------------*\
| =========                 |                                                 |
| \\      /  F ield         | OpenFOAM: The Open Source CFD Toolbox           |
|  \\    /   O peration     | Version:  2312                                  |
|   \\  /    A nd           | Website:  www.openfoam.com                      |
|    \\/     M anipulation  |                                                 |
\*---------------------------------------------------------------------------*/
FoamFile
{
    version     2.0;
    format      ascii;
    arch        "LSB;label=32;scalar=64";
    class       volScalarField;
    location    "500";
    object      nut;
}
// * * * * * * * * * * * * * * * * * * * * * * * * * * * * * * * * * * * * * //

dimensions      [0 2 -1 0 0 0 0];

internalField   nonuniform List<scalar> 
27000
(
3.9517e-06
6.70593e-06
9.36299e-06
1.17393e-05
1.4048e-05
1.62023e-05
1.81577e-05
1.98089e-05
2.12288e-05
2.24414e-05
2.34417e-05
2.42335e-05
2.48245e-05
2.52174e-05
2.54136e-05
2.54137e-05
2.52177e-05
2.48251e-05
2.42343e-05
2.34426e-05
2.24422e-05
2.12297e-05
1.98098e-05
1.81586e-05
1.62031e-05
1.40486e-05
1.17396e-05
9.36294e-06
6.70569e-06
3.95152e-06
5.75228e-06
1.28148e-06
5.15914e-06
9.0777e-06
1.31628e-05
1.70435e-05
2.07096e-05
2.41188e-05
2.72064e-05
2.99519e-05
3.23372e-05
3.43239e-05
3.58596e-05
3.69048e-05
3.74337e-05
3.74336e-05
3.69044e-05
3.58591e-05
3.43235e-05
3.23374e-05
2.99531e-05
2.72082e-05
2.41207e-05
2.07111e-05
1.70442e-05
1.31629e-05
9.07762e-06
5.15927e-06
1.28162e-06
5.7521e-06
9.2274e-06
7.13911e-06
1.45115e-05
2.61319e-05
3.68659e-05
4.62356e-05
5.48049e-05
6.28394e-05
7.01561e-05
7.66194e-05
8.21579e-05
8.67088e-05
9.01928e-05
9.25484e-05
9.3736e-05
9.37353e-05
9.25466e-05
9.01903e-05
8.67067e-05
8.21582e-05
7.66239e-05
7.01634e-05
6.28469e-05
5.481e-05
4.62367e-05
3.68631e-05
2.61284e-05
1.45111e-05
7.13835e-06
9.22724e-06
1.21558e-05
1.08401e-05
2.60474e-05
5.26255e-05
7.82491e-05
9.63653e-05
0.000109863
0.000120925
0.000130265
0.00013804
0.000144428
0.000149511
0.000153311
0.000155841
0.000157105
0.000157104
0.000155839
0.000153309
0.000149509
0.00014443
0.000138047
0.000130275
0.000120936
0.000109869
9.63636e-05
7.82405e-05
5.26174e-05
2.60476e-05
1.08403e-05
1.21557e-05
1.49206e-05
1.4476e-05
3.68713e-05
7.61968e-05
0.000113317
0.000139175
0.000156017
0.000167838
0.000176768
0.000183278
0.000188307
0.000192214
0.000195076
0.000196955
0.000197887
0.000197887
0.000196954
0.000195074
0.000192213
0.000188307
0.000183277
0.000176773
0.000167846
0.000156021
0.000139174
0.000113309
7.61931e-05
3.68734e-05
1.44767e-05
1.49208e-05
1.74813e-05
1.84159e-05
4.77086e-05
9.52547e-05
0.000137847
0.000167234
0.000185425
0.000196814
0.00020434
0.00020945
0.000213038
0.000215616
0.000217423
0.000218579
0.000219144
0.000219144
0.000218578
0.000217421
0.000215616
0.00021304
0.000209454
0.000204346
0.000196822
0.000185433
0.000167242
0.00013785
9.52596e-05
4.77142e-05
1.84172e-05
1.74816e-05
1.98139e-05
2.25624e-05
5.85973e-05
0.000111522
0.000155768
0.000185119
0.000202852
0.000213221
0.000219372
0.000223126
0.000225496
0.000227037
0.00022804
0.000228653
0.000228945
0.000228944
0.000228652
0.00022804
0.000227038
0.000225498
0.000223131
0.000219379
0.000213229
0.000202861
0.000185127
0.000155775
0.000111531
5.86044e-05
2.25639e-05
1.98142e-05
2.1899e-05
2.6761e-05
6.91472e-05
0.000125614
0.000169854
0.000197346
0.000213366
0.000222265
0.000227115
0.000229757
0.000231216
0.00023204
0.000232513
0.000232775
0.000232894
0.000232894
0.000232775
0.000232513
0.000232041
0.000231219
0.000229762
0.000227121
0.000222273
0.000213373
0.000197353
0.000169862
0.000125623
6.91537e-05
2.67625e-05
2.18993e-05
2.37125e-05
3.08858e-05
7.90058e-05
0.000137692
0.000180981
0.000206063
0.000219985
0.0002273
0.000230973
0.000232741
0.000233556
0.000233915
0.000234065
0.000234124
0.000234144
0.000234144
0.000234124
0.000234066
0.000233917
0.000233559
0.000232745
0.000230978
0.000227306
0.000219991
0.000206068
0.000180986
0.000137699
7.90107e-05
3.08871e-05
2.37125e-05
2.52669e-05
3.47766e-05
8.7945e-05
0.00014781
0.000188844
0.000212112
0.000224218
0.000230144
0.000232847
0.000233959
0.000234337
0.00023441
0.000234378
0.00023433
0.000234301
0.000234301
0.000234331
0.000234379
0.000234411
0.00023434
0.000233962
0.000232851
0.000230149
0.000224222
0.000212115
0.000188847
0.000147814
8.79481e-05
3.47775e-05
2.52668e-05
2.65627e-05
3.82792e-05
9.57499e-05
0.000156283
0.000195385
0.000216556
0.000227021
0.000231793
0.000233739
0.000234379
0.000234474
0.00023438
0.000234256
0.000234158
0.000234108
0.000234108
0.000234159
0.000234257
0.000234382
0.000234476
0.000234382
0.000233743
0.000231796
0.000227024
0.000216558
0.000195386
0.000156284
9.57514e-05
3.828e-05
2.65623e-05
2.75993e-05
4.12579e-05
0.000102205
0.000163044
0.000200482
0.000219837
0.000228924
0.000232779
0.00023416
0.000234474
0.000234391
0.000234208
0.000234042
0.000233928
0.000233872
0.000233872
0.000233928
0.000234043
0.000234209
0.000234392
0.000234476
0.000234163
0.000232781
0.000228925
0.000219837
0.000200482
0.000163044
0.000102206
4.12586e-05
2.75988e-05
2.83767e-05
4.35977e-05
0.000107163
0.000168115
0.000204197
0.000222148
0.000230191
0.000233373
0.000234358
0.000234458
0.000234268
0.000234041
0.000233861
0.000233746
0.000233692
0.000233692
0.000233747
0.000233862
0.000234042
0.00023427
0.000234459
0.00023436
0.000233374
0.000230192
0.000222148
0.000204197
0.000168116
0.000107163
4.35985e-05
2.8376e-05
2.88951e-05
4.52086e-05
0.00011052
0.00017151
0.000206621
0.000223617
0.000230968
0.000233713
0.000234449
0.00023442
0.000234173
0.000233926
0.000233744
0.000233633
0.000233581
0.000233581
0.000233633
0.000233745
0.000233927
0.000234174
0.000234421
0.00023445
0.000233713
0.000230968
0.000223617
0.000206621
0.000171512
0.000110521
4.52096e-05
2.88943e-05
2.91544e-05
4.60291e-05
0.000112212
0.000173202
0.000207813
0.000224329
0.000231337
0.000233867
0.000234484
0.000234395
0.000234123
0.000233869
0.000233688
0.000233579
0.00023353
0.00023353
0.00023358
0.000233689
0.00023387
0.000234124
0.000234396
0.000234485
0.000233868
0.000231337
0.000224329
0.000207814
0.000173205
0.000112213
4.60302e-05
2.91536e-05
2.91546e-05
4.60285e-05
0.00011221
0.0001732
0.000207812
0.000224328
0.000231336
0.000233867
0.000234483
0.000234394
0.000234122
0.000233868
0.000233686
0.000233578
0.000233528
0.000233529
0.000233578
0.000233687
0.000233869
0.000234123
0.000234395
0.000234484
0.000233867
0.000231336
0.000224328
0.000207812
0.000173203
0.000112211
4.60296e-05
2.91539e-05
2.88958e-05
4.52068e-05
0.000110514
0.000171504
0.000206617
0.000223615
0.000230966
0.000233711
0.000234446
0.000234417
0.00023417
0.000233922
0.00023374
0.000233628
0.000233576
0.000233576
0.000233628
0.00023374
0.000233923
0.000234171
0.000234418
0.000234448
0.000233712
0.000230967
0.000223615
0.000206617
0.000171506
0.000110515
4.52079e-05
2.88951e-05
2.8378e-05
4.35948e-05
0.000107153
0.000168106
0.000204191
0.000222144
0.000230188
0.00023337
0.000234355
0.000234453
0.000234263
0.000234035
0.000233854
0.000233738
0.000233684
0.000233684
0.000233739
0.000233855
0.000234036
0.000234265
0.000234455
0.000234357
0.000233372
0.00023019
0.000222145
0.000204192
0.000168107
0.000107154
4.35958e-05
2.83774e-05
2.7601e-05
4.12543e-05
0.000102192
0.000163032
0.000200474
0.000219832
0.00022892
0.000232775
0.000234156
0.000234469
0.000234384
0.000234199
0.000234032
0.000233918
0.000233861
0.000233862
0.000233918
0.000234033
0.000234201
0.000234386
0.000234472
0.000234159
0.000232778
0.000228923
0.000219834
0.000200475
0.000163033
0.000102194
4.12553e-05
2.76006e-05
2.65647e-05
3.82754e-05
9.57348e-05
0.000156268
0.000195375
0.00021655
0.000227017
0.000231789
0.000233735
0.000234373
0.000234466
0.000234371
0.000234244
0.000234146
0.000234095
0.000234096
0.000234147
0.000234246
0.000234373
0.000234469
0.000234377
0.000233739
0.000231793
0.000227021
0.000216554
0.000195379
0.000156271
9.57372e-05
3.82764e-05
2.65645e-05
2.52692e-05
3.4773e-05
8.79291e-05
0.000147794
0.000188833
0.000212104
0.000224212
0.000230139
0.000232842
0.000233952
0.000234328
0.000234399
0.000234366
0.000234317
0.000234287
0.000234287
0.000234317
0.000234367
0.000234402
0.000234332
0.000233957
0.000232847
0.000230146
0.000224219
0.000212111
0.000188839
0.0001478
8.79333e-05
3.47741e-05
2.52692e-05
2.37148e-05
3.08829e-05
7.89903e-05
0.000137675
0.000180967
0.000206053
0.000219978
0.000227294
0.000230966
0.000232734
0.000233547
0.000233904
0.000234052
0.000234109
0.000234128
0.000234128
0.00023411
0.000234053
0.000233906
0.000233551
0.000232739
0.000230973
0.000227301
0.000219986
0.000206061
0.000180975
0.000137684
7.89965e-05
3.08841e-05
2.37151e-05
2.19014e-05
2.67593e-05
6.91335e-05
0.000125596
0.000169838
0.000197332
0.000213355
0.000222256
0.000227106
0.000229748
0.000231205
0.000232027
0.000232498
0.000232759
0.000232877
0.000232877
0.00023276
0.000232499
0.000232029
0.000231209
0.000229753
0.000227113
0.000222264
0.000213363
0.000197342
0.00016985
0.000125609
6.91416e-05
2.67605e-05
2.19019e-05
1.98159e-05
2.25622e-05
5.85853e-05
0.000111501
0.000155744
0.000185098
0.000202835
0.000213207
0.000219359
0.000223114
0.000225482
0.000227021
0.000228022
0.000228633
0.000228925
0.000228925
0.000228633
0.000228023
0.000227022
0.000225485
0.000223119
0.000219366
0.000213214
0.000202843
0.000185108
0.000155756
0.000111515
5.85945e-05
2.25635e-05
1.98163e-05
1.74831e-05
1.84164e-05
4.76968e-05
9.52286e-05
0.000137815
0.000167208
0.0001854
0.000196792
0.00020432
0.000209431
0.000213018
0.000215593
0.000217397
0.000218552
0.000219116
0.000219116
0.000218551
0.000217397
0.000215594
0.00021302
0.000209436
0.000204326
0.000196799
0.000185406
0.000167216
0.000137821
9.5239e-05
4.7705e-05
1.84174e-05
1.74834e-05
1.4922e-05
1.44775e-05
3.68617e-05
7.61672e-05
0.000113277
0.000139138
0.000155983
0.000167808
0.000176738
0.00018325
0.000188274
0.000192178
0.000195037
0.000196914
0.000197845
0.000197845
0.000196913
0.000195036
0.000192179
0.000188276
0.00018325
0.000176744
0.000167815
0.000155985
0.000139134
0.000113271
7.6168e-05
3.68663e-05
1.44778e-05
1.49222e-05
1.21568e-05
1.08424e-05
2.60418e-05
5.26e-05
7.82157e-05
9.63293e-05
0.000109826
0.000120887
0.000130225
0.000137999
0.000144382
0.00014946
0.000153257
0.000155783
0.000157045
0.000157044
0.000155781
0.000153255
0.00014946
0.000144386
0.000138007
0.000130237
0.000120899
0.000109833
9.63269e-05
7.82066e-05
5.25937e-05
2.60435e-05
1.0842e-05
1.21568e-05
9.22805e-06
7.14084e-06
1.45115e-05
2.61233e-05
3.68512e-05
4.62158e-05
5.47819e-05
6.28126e-05
7.01256e-05
7.65851e-05
8.21182e-05
8.66632e-05
9.01425e-05
9.24937e-05
9.36789e-05
9.36782e-05
9.24915e-05
9.01394e-05
8.66606e-05
8.2118e-05
7.65898e-05
7.01331e-05
6.28204e-05
5.47875e-05
4.62176e-05
3.68489e-05
2.61205e-05
1.45116e-05
7.1394e-06
9.22788e-06
5.75252e-06
1.28168e-06
5.16006e-06
9.07852e-06
1.31631e-05
1.70432e-05
2.07087e-05
2.41169e-05
2.72033e-05
2.99474e-05
3.23298e-05
3.43144e-05
3.58488e-05
3.6893e-05
3.74214e-05
3.74212e-05
3.68924e-05
3.58479e-05
3.43135e-05
3.23295e-05
2.99482e-05
2.72045e-05
2.4118e-05
2.07094e-05
1.70434e-05
1.31628e-05
9.07841e-06
5.1602e-06
1.28184e-06
5.75234e-06
3.95198e-06
6.70659e-06
9.36406e-06
1.17409e-05
1.405e-05
1.62048e-05
1.81607e-05
1.98123e-05
2.12327e-05
2.24457e-05
2.3447e-05
2.42393e-05
2.48304e-05
2.52235e-05
2.54197e-05
2.54198e-05
2.52238e-05
2.48311e-05
2.42401e-05
2.3448e-05
2.24466e-05
2.12337e-05
1.98134e-05
1.81617e-05
1.62057e-05
1.40506e-05
1.17411e-05
9.36391e-06
6.70624e-06
3.95172e-06
3.56002e-06
6.08674e-06
8.69351e-06
1.10699e-05
1.34477e-05
1.56954e-05
1.77662e-05
1.95396e-05
2.10748e-05
2.23984e-05
2.352e-05
2.4431e-05
2.51178e-05
2.55767e-05
2.58064e-05
2.58062e-05
2.55761e-05
2.51167e-05
2.44295e-05
2.35181e-05
2.23965e-05
2.10726e-05
1.9537e-05
1.77628e-05
1.56925e-05
1.34458e-05
1.10693e-05
8.69422e-06
6.08816e-06
3.56103e-06
5.11863e-06
1.60965e-06
7.45378e-06
1.1024e-05
1.46047e-05
1.76157e-05
2.02032e-05
2.26039e-05
2.46927e-05
2.64776e-05
2.79533e-05
2.91229e-05
2.99991e-05
3.05845e-05
3.0878e-05
3.08786e-05
3.05861e-05
3.00014e-05
2.91252e-05
2.79547e-05
2.64771e-05
2.46908e-05
2.26012e-05
2.02012e-05
1.76158e-05
1.46071e-05
1.10278e-05
7.45805e-06
1.61069e-06
5.12015e-06
8.68361e-06
1.02059e-05
1.32353e-05
1.67085e-05
2.18675e-05
2.73006e-05
3.23116e-05
3.66913e-05
4.06916e-05
4.42707e-05
4.73217e-05
4.97793e-05
5.16479e-05
5.29007e-05
5.35253e-05
5.35269e-05
5.29053e-05
5.16567e-05
4.97902e-05
4.73293e-05
4.42649e-05
4.06786e-05
3.66769e-05
3.23022e-05
2.72979e-05
2.18702e-05
1.67124e-05
1.32395e-05
1.02182e-05
8.68492e-06
1.15688e-05
1.3418e-05
1.7907e-05
2.5704e-05
3.59968e-05
4.66372e-05
5.60631e-05
6.42541e-05
7.15194e-05
7.80416e-05
8.36595e-05
8.81982e-05
9.16102e-05
9.38762e-05
9.50058e-05
9.50116e-05
9.38935e-05
9.16388e-05
8.82338e-05
8.36934e-05
7.8063e-05
7.1519e-05
6.42448e-05
5.60497e-05
4.66238e-05
3.59885e-05
2.5712e-05
1.79093e-05
1.34273e-05
1.15692e-05
1.44254e-05
1.58914e-05
2.27858e-05
3.59303e-05
5.45013e-05
7.39234e-05
9.00033e-05
0.000102505
0.000112672
0.000121427
0.000128605
0.000134184
0.000138269
0.000140877
0.000142147
0.000142151
0.000140892
0.000138299
0.000134219
0.000128635
0.000121445
0.000112668
0.000102481
8.99598e-05
7.38757e-05
5.44809e-05
3.59309e-05
2.27792e-05
1.58971e-05
1.44246e-05
1.71427e-05
1.81069e-05
2.85862e-05
4.70953e-05
7.34934e-05
0.000100091
0.00012222
0.000138139
0.000149683
0.000158504
0.000165315
0.000170447
0.000174119
0.000176467
0.000177608
0.00017761
0.000176474
0.000174132
0.00017046
0.000165322
0.000158498
0.000149661
0.000138103
0.000122162
0.00010003
7.34489e-05
4.7076e-05
2.85721e-05
1.81091e-05
1.71415e-05
1.96559e-05
2.0541e-05
3.39349e-05
5.8302e-05
9.09803e-05
0.000122482
0.000146877
0.000164155
0.000176126
0.000184564
0.000190621
0.000194953
0.000197944
0.000199823
0.000200728
0.000200728
0.000199825
0.000197947
0.000194954
0.000190615
0.000184549
0.000176102
0.000164122
0.000146834
0.000122429
9.09421e-05
5.82841e-05
3.39181e-05
2.05387e-05
1.96545e-05
2.1959e-05
2.30243e-05
3.9023e-05
6.88775e-05
0.000106048
0.000139785
0.000164784
0.000182111
0.000193748
0.000201523
0.000206751
0.00021027
0.000212584
0.00021399
0.000214655
0.000214655
0.000213989
0.000212582
0.000210265
0.000206741
0.000201506
0.000193726
0.000182085
0.000164754
0.000139756
0.00010603
6.88721e-05
3.901e-05
2.30224e-05
2.19576e-05
2.40587e-05
2.53387e-05
4.39035e-05
7.88024e-05
0.000119013
0.000153201
0.000177774
0.000194373
0.000205196
0.000212125
0.00021653
0.000219315
0.000221043
0.000222045
0.000222506
0.000222506
0.000222044
0.000221039
0.000219308
0.000216519
0.000212111
0.000205179
0.000194354
0.000177756
0.000153188
0.000119011
7.88056e-05
4.38956e-05
2.53378e-05
2.40576e-05
2.58986e-05
2.74211e-05
4.83361e-05
8.74839e-05
0.000130187
0.000163776
0.000187296
0.00020278
0.000212576
0.000218603
0.000222237
0.000224394
0.000225645
0.00022633
0.000226631
0.000226631
0.000226328
0.000225642
0.000224388
0.000222229
0.000218592
0.000212564
0.000202768
0.000187286
0.000163771
0.000130188
8.74906e-05
4.83335e-05
2.74215e-05
2.58979e-05
2.74577e-05
2.92366e-05
5.21966e-05
9.46572e-05
0.000138556
0.000171758
0.000194209
0.000208543
0.000217317
0.0002225
0.000225464
0.000227108
0.00022799
0.000228436
0.00022862
0.00022862
0.000228434
0.000227987
0.000227104
0.000225458
0.000222493
0.000217311
0.000208538
0.000194206
0.000171759
0.000138563
9.46649e-05
5.21988e-05
2.9238e-05
2.74572e-05
2.87211e-05
3.07484e-05
5.54198e-05
0.000100406
0.000144914
0.000177631
0.000199129
0.000212454
0.000220342
0.000224813
0.000227235
0.000228485
0.000229095
0.00022937
0.000229473
0.000229473
0.000229369
0.000229093
0.000228483
0.000227232
0.00022481
0.00022034
0.000212454
0.000199133
0.000177637
0.000144924
0.000100413
5.54251e-05
3.07505e-05
2.87209e-05
2.96779e-05
3.19211e-05
5.79331e-05
0.00010478
0.000149577
0.000181799
0.00020251
0.000215031
0.000222228
0.000226156
0.000228177
0.000229144
0.000229566
0.000229727
0.000229777
0.000229776
0.000229726
0.000229565
0.000229143
0.000228176
0.000226156
0.000222229
0.000215035
0.000202518
0.00018181
0.000149589
0.000104787
5.79398e-05
3.19235e-05
2.96778e-05
3.03199e-05
3.27239e-05
5.96591e-05
0.000107755
0.000152667
0.000184493
0.000204637
0.000216601
0.000223326
0.000226892
0.00022865
0.000229437
0.000229741
0.000229834
0.000229852
0.000229852
0.000229834
0.000229741
0.000229437
0.000228651
0.000226894
0.000223331
0.000216607
0.000204647
0.000184505
0.00015268
0.000107761
5.96661e-05
3.27262e-05
3.03198e-05
3.0642e-05
3.31352e-05
6.05417e-05
0.000109254
0.000154209
0.000185818
0.000205667
0.000217345
0.000223833
0.000227217
0.000228846
0.000229546
0.000229795
0.000229855
0.000229859
0.000229859
0.000229855
0.000229795
0.000229547
0.000228848
0.00022722
0.000223838
0.000217353
0.000205677
0.000185831
0.000154222
0.000109261
6.0548e-05
3.31369e-05
3.06419e-05
3.06419e-05
3.31358e-05
6.05426e-05
0.000109255
0.00015421
0.000185819
0.000205667
0.000217345
0.000223834
0.000227218
0.000228847
0.000229547
0.000229796
0.000229857
0.000229861
0.000229861
0.000229857
0.000229797
0.000229548
0.000228849
0.000227221
0.000223839
0.000217353
0.000205678
0.000185832
0.000154223
0.000109262
6.05488e-05
3.31375e-05
3.06418e-05
3.03196e-05
3.27257e-05
5.96618e-05
0.000107757
0.000152669
0.000184494
0.000204638
0.000216602
0.000223329
0.000226894
0.000228653
0.000229441
0.000229746
0.000229839
0.000229858
0.000229858
0.000229839
0.000229746
0.000229442
0.000228654
0.000226897
0.000223333
0.000216609
0.000204648
0.000184506
0.000152683
0.000107766
5.96687e-05
3.27278e-05
3.03193e-05
2.96775e-05
3.19239e-05
5.79374e-05
0.000104785
0.000149581
0.000181801
0.000202512
0.000215033
0.000222231
0.00022616
0.000228183
0.000229151
0.000229574
0.000229736
0.000229786
0.000229786
0.000229735
0.000229573
0.00022915
0.000228182
0.00022616
0.000222232
0.000215037
0.000202519
0.000181812
0.000149594
0.000104796
5.79443e-05
3.19262e-05
2.9677e-05
2.87206e-05
3.07521e-05
5.54255e-05
0.000100413
0.000144919
0.000177632
0.000199131
0.000212455
0.000220345
0.000224817
0.000227242
0.000228494
0.000229105
0.000229381
0.000229485
0.000229485
0.00022938
0.000229103
0.000228491
0.000227239
0.000224814
0.000220342
0.000212455
0.000199133
0.000177639
0.00014493
0.000100425
5.54312e-05
3.07541e-05
2.87199e-05
2.74569e-05
2.9241e-05
5.22033e-05
9.46662e-05
0.000138561
0.000171759
0.000194208
0.000208543
0.000217319
0.000222504
0.000225471
0.000227118
0.000228002
0.000228449
0.000228635
0.000228634
0.000228448
0.000227999
0.000227114
0.000225465
0.000222498
0.000217313
0.000208538
0.000194205
0.00017176
0.00013857
9.46796e-05
5.22061e-05
2.92423e-05
2.74559e-05
2.58976e-05
2.74258e-05
4.83427e-05
8.74932e-05
0.00013019
0.000163775
0.000187293
0.000202777
0.000212576
0.000218605
0.000222243
0.000224404
0.000225658
0.000226344
0.000226647
0.000226646
0.000226342
0.000225654
0.000224398
0.000222235
0.000218595
0.000212564
0.000202766
0.000187283
0.000163771
0.000130195
8.75061e-05
4.83414e-05
2.74262e-05
2.58963e-05
2.40575e-05
2.53434e-05
4.3909e-05
7.881e-05
0.000119016
0.000153197
0.000177767
0.000194367
0.000205193
0.000212125
0.000216534
0.000219324
0.000221055
0.00022206
0.000222521
0.000222521
0.000222058
0.000221051
0.000219317
0.000216525
0.000212112
0.000205177
0.000194349
0.00017775
0.000153185
0.000119019
7.88196e-05
4.39032e-05
2.53427e-05
2.40558e-05
2.19577e-05
2.30285e-05
3.90265e-05
6.88803e-05
0.000106042
0.000139773
0.000164771
0.0001821
0.00019374
0.00020152
0.000206754
0.000210278
0.000212595
0.000214003
0.000214669
0.000214669
0.000214002
0.000212593
0.000210273
0.000206744
0.000201505
0.000193721
0.000182076
0.000164743
0.000139746
0.000106029
6.88799e-05
3.90157e-05
2.30268e-05
2.19558e-05
1.96551e-05
2.05439e-05
3.39365e-05
5.82984e-05
9.0963e-05
0.000122459
0.000146856
0.000164138
0.000176115
0.000184559
0.000190623
0.000194961
0.000197956
0.000199835
0.000200741
0.000200741
0.000199837
0.000197958
0.000194961
0.000190618
0.000184545
0.000176093
0.000164108
0.000146816
0.00012241
9.09276e-05
5.82826e-05
3.39211e-05
2.05417e-05
1.96534e-05
1.71419e-05
1.81071e-05
2.859e-05
4.70891e-05
7.34701e-05
0.000100059
0.00012219
0.000138118
0.000149671
0.0001585
0.000165321
0.00017046
0.000174134
0.000176482
0.000177622
0.000177624
0.000176489
0.000174147
0.000170472
0.000165327
0.000158495
0.000149651
0.000138084
0.000122136
0.0001
7.34257e-05
4.70689e-05
2.85759e-05
1.81095e-05
1.71405e-05
1.44244e-05
1.58925e-05
2.27894e-05
3.5933e-05
5.44844e-05
7.389e-05
8.99732e-05
0.000102489
0.000112668
0.000121432
0.000128622
0.000134207
0.000138294
0.000140899
0.000142168
0.000142173
0.000140914
0.000138324
0.000134242
0.000128653
0.000121452
0.000112666
0.000102467
8.99304e-05
7.3842e-05
5.44596e-05
3.59274e-05
2.27816e-05
1.58981e-05
1.44234e-05
1.15683e-05
1.34197e-05
1.79073e-05
2.57083e-05
3.59847e-05
4.66229e-05
5.60528e-05
6.425e-05
7.15221e-05
7.80545e-05
8.3677e-05
8.8218e-05
9.16322e-05
9.3903e-05
9.50363e-05
9.50427e-05
9.39228e-05
9.16645e-05
8.82582e-05
8.37156e-05
7.80793e-05
7.15248e-05
6.42427e-05
5.60391e-05
4.66074e-05
3.59721e-05
2.57119e-05
1.79079e-05
1.34284e-05
1.15686e-05
8.6837e-06
1.0209e-05
1.32366e-05
1.67117e-05
2.1871e-05
2.73055e-05
3.23158e-05
3.66968e-05
4.06985e-05
4.42787e-05
4.73272e-05
4.97854e-05
5.16563e-05
5.29187e-05
5.35491e-05
5.35508e-05
5.29252e-05
5.16674e-05
4.97994e-05
4.73401e-05
4.4275e-05
4.06875e-05
3.66839e-05
3.23065e-05
2.73016e-05
2.18717e-05
1.67135e-05
1.32395e-05
1.02197e-05
8.68491e-06
5.11877e-06
1.61024e-06
7.45554e-06
1.10259e-05
1.46059e-05
1.76174e-05
2.0209e-05
2.26108e-05
2.47006e-05
2.64867e-05
2.79651e-05
2.91366e-05
3.00139e-05
3.06002e-05
3.0894e-05
3.08945e-05
3.06015e-05
3.00157e-05
2.91383e-05
2.7966e-05
2.64858e-05
2.46986e-05
2.26085e-05
2.02074e-05
1.76184e-05
1.4609e-05
1.103e-05
7.45989e-06
1.61156e-06
5.12024e-06
3.56e-06
6.08651e-06
8.69276e-06
1.10685e-05
1.34457e-05
1.56929e-05
1.77636e-05
1.95378e-05
2.10731e-05
2.23966e-05
2.35167e-05
2.44275e-05
2.51143e-05
2.55732e-05
2.58029e-05
2.58027e-05
2.55726e-05
2.51131e-05
2.44259e-05
2.35147e-05
2.23947e-05
2.1071e-05
1.95353e-05
1.77605e-05
1.56903e-05
1.34439e-05
1.10681e-05
8.69356e-06
6.08789e-06
3.56096e-06
3.37104e-06
5.73121e-06
8.24745e-06
1.05668e-05
1.28947e-05
1.50939e-05
1.71131e-05
1.88516e-05
2.03756e-05
2.1694e-05
2.27944e-05
2.36753e-05
2.43387e-05
2.47827e-05
2.50055e-05
2.50061e-05
2.47845e-05
2.43417e-05
2.36795e-05
2.27997e-05
2.17001e-05
2.03823e-05
1.88585e-05
1.71202e-05
1.50995e-05
1.2898e-05
1.05673e-05
8.24551e-06
5.72773e-06
3.36866e-06
4.88888e-06
2.54244e-06
1.07294e-05
1.60148e-05
2.10829e-05
2.5573e-05
2.93959e-05
3.23718e-05
3.46548e-05
3.63767e-05
3.76755e-05
3.86489e-05
3.93497e-05
3.98063e-05
4.00326e-05
4.0034e-05
3.98105e-05
3.93565e-05
3.8658e-05
3.76866e-05
3.63895e-05
3.46681e-05
3.23811e-05
2.93995e-05
2.557e-05
2.10739e-05
1.60031e-05
1.07173e-05
2.53373e-06
4.88516e-06
8.30026e-06
1.31094e-05
1.72894e-05
2.10737e-05
2.40904e-05
2.71863e-05
3.01826e-05
3.3057e-05
3.58297e-05
3.83213e-05
4.04641e-05
4.22345e-05
4.35891e-05
4.45082e-05
4.49746e-05
4.49743e-05
4.45082e-05
4.3591e-05
4.22415e-05
4.04794e-05
3.83475e-05
3.58588e-05
3.30637e-05
3.01838e-05
2.71857e-05
2.40943e-05
2.10786e-05
1.72859e-05
1.30775e-05
8.29692e-06
1.10713e-05
1.82432e-05
2.32955e-05
2.4865e-05
2.86779e-05
3.4926e-05
4.15735e-05
4.78015e-05
5.3276e-05
5.79276e-05
6.1788e-05
6.4946e-05
6.73586e-05
6.89932e-05
6.98158e-05
6.98089e-05
6.89731e-05
6.73263e-05
6.49061e-05
6.17492e-05
5.79012e-05
5.32803e-05
4.78122e-05
4.15629e-05
3.48923e-05
2.86874e-05
2.48767e-05
2.32879e-05
1.8218e-05
1.10698e-05
1.37997e-05
2.21962e-05
2.63978e-05
2.95265e-05
3.86139e-05
5.07416e-05
6.20372e-05
7.18153e-05
7.99019e-05
8.67176e-05
9.23601e-05
9.69643e-05
0.000100461
0.000102936
0.000104208
0.000104196
0.000102901
0.00010039
9.68781e-05
9.22896e-05
8.66823e-05
7.99024e-05
7.18399e-05
6.2073e-05
5.0759e-05
3.8553e-05
2.95299e-05
2.63908e-05
2.21757e-05
1.3801e-05
1.6418e-05
2.56328e-05
2.8633e-05
3.59326e-05
5.08488e-05
6.86935e-05
8.59683e-05
0.00010108
0.000113156
0.000122572
0.000129906
0.000135532
0.000139599
0.000142233
0.000143538
0.000143532
0.000142213
0.000139562
0.000135474
0.000129861
0.000122562
0.000113185
0.000101148
8.6077e-05
6.87604e-05
5.08875e-05
3.5945e-05
2.8626e-05
2.5621e-05
1.64213e-05
1.88869e-05
2.82487e-05
3.10247e-05
4.3672e-05
6.31717e-05
8.64044e-05
0.000109787
0.000128698
0.000142607
0.000152829
0.00016039
0.000165932
0.000169826
0.000172297
0.000173498
0.000173497
0.000172292
0.000169816
0.000165921
0.000160388
0.000152848
0.000142648
0.000128762
0.000109886
8.65073e-05
6.3225e-05
4.37051e-05
3.10245e-05
2.82485e-05
1.88913e-05
2.11609e-05
3.03339e-05
3.41751e-05
5.10696e-05
7.48299e-05
0.000103313
0.000129728
0.000149906
0.000164486
0.000174846
0.000182187
0.000187341
0.000190839
0.000193009
0.000194047
0.000194048
0.00019301
0.000190842
0.000187347
0.000182201
0.000174871
0.000164522
0.000149957
0.000129788
0.000103369
7.48505e-05
5.10695e-05
3.42005e-05
3.03396e-05
2.11655e-05
2.31949e-05
3.20124e-05
3.7562e-05
5.7432e-05
8.5067e-05
0.000117753
0.000145176
0.000165559
0.000180024
0.000190069
0.000196962
0.000201626
0.000204683
0.000206527
0.000207395
0.000207397
0.000206531
0.00020469
0.000201637
0.000196979
0.000190092
0.000180054
0.000165594
0.000145211
0.000117768
8.50475e-05
5.74207e-05
3.75842e-05
3.20179e-05
2.31988e-05
2.49855e-05
3.3383e-05
4.09017e-05
6.34228e-05
9.50351e-05
0.000129651
0.000157057
0.000176997
0.00019091
0.000200378
0.000206702
0.000210842
0.000213464
0.000215001
0.00021571
0.000215711
0.000215005
0.000213471
0.000210853
0.000206716
0.000200396
0.000190931
0.000177019
0.000157075
0.000129654
9.50125e-05
6.34088e-05
4.09145e-05
3.33877e-05
2.49888e-05
2.65133e-05
3.45049e-05
4.39546e-05
6.87173e-05
0.000103692
0.00013893
0.000166006
0.000185267
0.00019846
0.000207255
0.000212981
0.000216615
0.00021884
0.000220103
0.000220673
0.000220674
0.000220106
0.000218845
0.000216623
0.000212991
0.000207267
0.000198472
0.000185277
0.00016601
0.000138922
0.000103666
6.87037e-05
4.39571e-05
3.45086e-05
2.65159e-05
2.77597e-05
3.54087e-05
4.64968e-05
7.30794e-05
0.000110598
0.000145991
0.000172572
0.000191129
0.000203608
0.000211758
0.000216933
0.000220121
0.000222007
0.000223044
0.0002235
0.000223501
0.000223046
0.000222011
0.000220126
0.000216939
0.000211764
0.000203612
0.000191129
0.000172566
0.000145975
0.000110573
7.30691e-05
4.6494e-05
3.54116e-05
2.77618e-05
2.8709e-05
3.61024e-05
4.84307e-05
7.63587e-05
0.000115701
0.000151077
0.000177177
0.000195121
0.000206998
0.000214611
0.000219336
0.000222167
0.00022379
0.000224653
0.000225023
0.000225023
0.000224654
0.000223791
0.000222168
0.000219337
0.000214611
0.000206995
0.000195114
0.000177164
0.000151057
0.000115679
7.63516e-05
4.84275e-05
3.61043e-05
2.87108e-05
2.93493e-05
3.65848e-05
4.97627e-05
7.85305e-05
0.000119046
0.000154366
0.000180103
0.000197605
0.00020905
0.000216282
0.000220692
0.000223277
0.00022472
0.000225467
0.000225779
0.000225779
0.000225467
0.00022472
0.000223276
0.00022069
0.000216278
0.000209042
0.000197593
0.000180087
0.000154345
0.000119028
7.8526e-05
4.97593e-05
3.65849e-05
2.93508e-05
2.96725e-05
3.68674e-05
5.04469e-05
7.96223e-05
0.000120701
0.00015598
0.000181525
0.000198795
0.000210017
0.000217052
0.0002213
0.00022376
0.000225113
0.000225801
0.000226085
0.000226085
0.0002258
0.000225112
0.000223758
0.000221297
0.000217046
0.000210007
0.000198782
0.000181507
0.000155959
0.000120684
7.96185e-05
5.04429e-05
3.68617e-05
2.96738e-05
2.96726e-05
3.6867e-05
5.0447e-05
7.96221e-05
0.0001207
0.000155978
0.000181524
0.000198794
0.000210015
0.000217051
0.000221299
0.000223758
0.000225111
0.000225799
0.000226083
0.000226083
0.000225799
0.00022511
0.000223757
0.000221295
0.000217045
0.000210006
0.00019878
0.000181506
0.000155957
0.000120681
7.96171e-05
5.04429e-05
3.68613e-05
2.9674e-05
2.93496e-05
3.65846e-05
4.97631e-05
7.85296e-05
0.000119043
0.000154361
0.000180099
0.000197601
0.000209046
0.000216278
0.000220688
0.000223273
0.000224716
0.000225462
0.000225775
0.000225775
0.000225463
0.000224716
0.000223272
0.000220686
0.000216274
0.000209039
0.000197589
0.000180082
0.000154339
0.00011902
7.85217e-05
4.97592e-05
3.65844e-05
2.93514e-05
2.87096e-05
3.61022e-05
4.84312e-05
7.63566e-05
0.000115694
0.00015107
0.00017717
0.000195115
0.000206992
0.000214605
0.00021933
0.00022216
0.000223783
0.000224645
0.000225015
0.000225016
0.000224646
0.000223784
0.000222162
0.000219331
0.000214605
0.000206989
0.000195108
0.000177156
0.000151047
0.000115667
7.63443e-05
4.84273e-05
3.61034e-05
2.87116e-05
2.77605e-05
3.54085e-05
4.64972e-05
7.30748e-05
0.000110589
0.000145982
0.000172564
0.000191121
0.0002036
0.00021175
0.000216924
0.000220111
0.000221997
0.000223033
0.000223489
0.000223489
0.000223035
0.000222
0.000220116
0.00021693
0.000211755
0.000203604
0.000191121
0.000172557
0.000145963
0.000110558
7.30582e-05
4.64937e-05
3.54101e-05
2.77629e-05
2.65143e-05
3.45045e-05
4.39539e-05
6.87097e-05
0.00010368
0.00013892
0.000165997
0.000185258
0.00019845
0.000207244
0.000212968
0.000216601
0.000218825
0.000220087
0.000220657
0.000220658
0.000220091
0.000218831
0.00021661
0.000212979
0.000207256
0.000198462
0.000185268
0.000166
0.000138909
0.000103649
6.86903e-05
4.39576e-05
3.45066e-05
2.65172e-05
2.49868e-05
3.33826e-05
4.09023e-05
6.34138e-05
9.50221e-05
0.000129642
0.000157049
0.000176988
0.000190898
0.000200364
0.000206685
0.000210824
0.000213444
0.00021498
0.000215688
0.00021569
0.000214985
0.000213452
0.000210835
0.000206701
0.000200382
0.000190919
0.000177009
0.000157065
0.000129641
9.49942e-05
6.33939e-05
4.09152e-05
3.33851e-05
2.49902e-05
2.31965e-05
3.20122e-05
3.75641e-05
5.74234e-05
8.50527e-05
0.000117746
0.000145171
0.000165551
0.000180011
0.000190052
0.000196941
0.000201602
0.000204656
0.0002065
0.000207368
0.00020737
0.000206506
0.000204665