/*--------------------------------*- C++ -*----------------------------------*\
| =========                 |                                                 |
| \\      /  F ield         | OpenFOAM: The Open Source CFD Toolbox           |
|  \\    /   O peration     | Version:  2312                                  |
|   \\  /    A nd           | Website:  www.openfoam.com                      |
|    \\/     M anipulation  |                                                 |
\*---------------------------------------------------------------------------*/
FoamFile
{
    version     2.0;
    format      ascii;
    arch        "LSB;label=32;scalar=64";
    class       surfaceScalarField;
    location    "500";
    object      phi;
}
// * * * * * * * * * * * * * * * * * * * * * * * * * * * * * * * * * * * * * //

dimensions      [1 0 -1 0 0 0 0];

oriented        oriented;

internalField   nonuniform List<scalar> 
78300
(
-3.60805e-05
0.000262365
0.0075331
0.00285775
0.00119191
0.00975232
0.0029395
0.00456042
0.0149952
0.0033061
0.00515122
0.0196071
0.00358244
0.00580346
0.0241904
0.0037367
0.0063661
0.028524
0.00375645
0.00686196
0.032539
0.00363758
0.0072711
0.0362226
0.00337751
0.00759306
0.0395515
0.00299264
0.00784017
0.0424749
0.00250631
0.00802719
0.044954
0.00194138
0.00816559
0.0469633
0.00131947
0.00826271
0.0484853
0.000660628
0.00832414
0.049507
-1.61211e-05
0.00835371
0.05002
-0.000692231
0.00835327
0.0500198
-0.00134912
0.00832279
0.0495064
-0.00196763
0.00826033
0.0484842
-0.00252746
0.008162
0.0469618
-0.00300681
0.00802222
0.044952
-0.00338268
0.00783371
0.0424724
-0.00363194
0.00758518
0.0395486
-0.00373889
0.00726226
0.0362195
-0.00370814
0.00685392
0.032536
-0.00354754
0.00636232
0.0285214
-0.00327031
0.00580437
0.0241886
-0.00290802
0.00515631
0.0196064
-0.00283851
0.00457245
0.0149954
4.22449e-05
0.00120397
0.00975333
0.000267206
0.00753443
0.00319383
0.00438507
0.00970517
0.00547343
0.00393161
0.0178704
0.00654433
0.00709249
0.0248851
0.00683958
0.00794518
0.0306965
0.00691293
0.00853264
0.0359504
0.0068179
0.00901238
0.0408109
0.0065728
0.00941831
0.0452761
0.00617017
0.00975965
0.0493191
0.00560534
0.0100332
0.0529184
0.00488982
0.010241
0.0560492
0.00404865
0.010392
0.0586872
0.00311088
0.0104973
0.0608147
0.00210337
0.0105673
0.06242
0.00105104
0.0106092
0.0634946
-2.28203e-05
0.0106284
0.0640331
-0.00109572
0.0106274
0.0640327
-0.00214519
0.0106062
0.0634935
-0.00314793
0.0105621
0.0624181
-0.00407914
0.01049
0.060812
-0.00491209
0.0103823
0.0586836
-0.00561833
0.0102295
0.056045
-0.00617375
0.0100205
0.0529138
-0.0065683
0.00974712
0.0493147
-0.0068082
0.00940851
0.0452727
-0.00690151
0.0090086
0.0408091
-0.00683164
0.00853652
0.0359509
-0.00654474
0.0079557
0.0306994
-0.00548062
0.00710661
0.0248898
-0.00321012
0.00394755
0.0178756
0.00437203
0.00970676
0.00680898
0.00394927
0.0198934
0.00949483
0.00590451
0.027268
0.0103492
0.0084882
0.0350771
0.0101443
0.00925623
0.0413315
0.00960384
0.00964964
0.046653
0.00896319
0.00993936
0.0513899
0.0082625
0.0101933
0.0556784
0.00749162
0.0104249
0.0595417
0.00663419
0.0106269
0.0629694
0.00568454
0.01079
0.0659438
0.00464928
0.0109122
0.0684476
0.00354276
0.0109978
0.0704665
0.00238282
0.0110535
0.0719896
0.00118766
0.011086
0.0730092
-2.44116e-05
0.0111001
0.07352
-0.0012355
0.0110986
0.0735195
-0.00242754
0.0110814
0.0730076
-0.00358256
0.0110459
0.0719871
-0.00468246
0.0109872
0.0704631
-0.00571012
0.010899
0.0684435
-0.00665191
0.010775
0.0659394
-0.00750228
0.0106113
0.0629653
-0.00826849
0.0104108
0.0595386
-0.00896751
0.010183
0.0556772
-0.00960965
0.00993549
0.0513915
-0.0101541
0.00965299
0.0466576
-0.0103644
0.00926516
0.0413384
-0.00951314
0.00849842
0.0350841
-0.00681728
0.0059059
0.0272726
0.00392698
0.0198944
0.00695082
0.00446833
0.0279024
0.0100994
0.0067575
0.0368286
0.0110494
0.00899115
0.0445849
0.0109094
0.00962551
0.0507368
0.0103054
0.00992509
0.0559161
0.00952706
0.0101157
0.0604781
0.00867327
0.0102768
0.0645782
0.00776598
0.0104326
0.0682602
0.0068039
0.01058
0.0715234
0.00578233
0.0107089
0.0743542
0.00470195
0.0108117
0.0767374
0.00356925
0.0108869
0.0786599
0.00239508
0.0109371
0.080111
0.0011928
0.0109666
0.0810826
-2.32507e-05
0.0109791
0.0815695
-0.00123827
0.0109771
0.081569
-0.00243766
0.0109605
0.0810811
-0.00360719
0.0109272
0.0801086
-0.00473401
0.0108735
0.0786568
-0.00580798
0.0107955
0.076734
-0.00682333
0.0106909
0.074351
-0.00778076
0.010562
0.0715211
-0.00868536
0.0104164
0.0682597
-0.00953925
0.0102647
0.0645801
-0.0103197
0.0101092
0.0604829
-0.010927
0.00992442
0.0559233
-0.0110692
0.00962849
0.050745
-0.0101164
0.00899217
0.0445914
-0.00696009
0.00674831
0.0368314
0.00443667
0.0279025
0.00789369
0.00471514
0.0360781
0.0108192
0.00727402
0.0460401
0.0114754
0.00912064
0.0537188
0.0112197
0.00958954
0.0595494
0.01057
0.00980246
0.0644877
0.00974267
0.00992813
0.0688671
0.00882638
0.010032
0.072806
0.00785506
0.0101371
0.0763391
0.00683908
0.0102437
0.0794674
0.00578056
0.0103432
0.08218
0.00468033
0.0104278
0.0844638
0.00354203
0.0104928
0.0863064
0.00237252
0.0105379
0.0876976
0.0011812
0.0105649
0.0886293
-2.09445e-05
0.0105763
0.0890963
-0.00122217
0.0105738
0.0890959
-0.00241091
0.0105575
0.0886281
-0.00357639
0.0105259
0.0876957
-0.00470979
0.0104768
0.0863041
-0.00580479
0.0104086
0.0844615
-0.00685881
0.0103224
0.0821783
-0.00787145
0.0102227
0.079467
-0.00884141
0.0101181
0.0763406
-0.00975805
0.0100165
0.0728098
-0.0105867
0.00991707
0.068873
-0.0112372
0.00979548
0.0644949
-0.0114914
0.00958428
0.0595561
-0.0108301
0.00911248
0.0537229
-0.00789648
0.00725631
0.0460405
0.00468205
0.0360768
0.00856067
0.00479281
0.0440503
0.0113172
0.00741708
0.0548682
0.0117507
0.00895528
0.0623464
0.0113762
0.00929926
0.0678668
0.0106758
0.00943967
0.0725675
0.0098181
0.00951433
0.0767689
0.00887261
0.00957616
0.0805599
0.00787141
0.00964378
0.0839618
0.00682912
0.00971785
0.0869727
0.00575211
0.00979166
0.0895827
0.00464345
0.00985799
0.0917797
0.00350628
0.00991158
0.0935522
0.00234545
0.00995017
0.0948904
0.00116787
0.00997381
0.0957867
-1.80949e-05
0.0099837
0.096236
-0.00120332
0.00998077
0.0962357
-0.00237875
0.0099652
0.0957858
-0.00353631
0.00993626
0.094889
-0.00466961
0.00989314
0.0935507
-0.00577438
0.00983611
0.0917785
-0.00684805
0.00976784
0.0895823
-0.00788814
0.0096938
0.0869736
-0.00888837
0.00962124
0.0839643
-0.00983374
0.00955636
0.0805641
-0.0106914
0.00949787
0.0767742
-0.0113904
0.00942591
0.072573
-0.0117612
0.00928623
0.0678709
-0.0113215
0.00893967
0.0623476
-0.00855926
0.00739547
0.0548663
0.00476344
0.044048
0.00905707
0.0047099
0.051696
0.0116265
0.00726519
0.0631596
0.0119063
0.00854143
0.070394
0.0114532
0.00879806
0.0756469
0.0107174
0.00888576
0.0801398
0.00984065
0.00892288
0.084177
0.00888037
0.00895314
0.0878305
0.00786514
0.00899197
0.0911121
0.00681056
0.00903991
0.0940167
0.00572488
0.00909172
0.0965342
0.00461278
0.00914113
0.098653
0.00347796
0.00918293
0.100362
0.0023246
0.00921411
0.101653
0.00115809
0.0092336
0.102517
-1.50008e-05
0.00924149
0.102951
-0.00118754
0.00923824
0.10295
-0.00235242
0.00922396
0.102517
-0.00350338
0.00919862
0.101652
-0.0046354
0.00916245
0.100362
-0.00574475
0.00911688
0.0986526
-0.00682821
0.00906527
0.0965346
-0.00788128
0.00901289
0.0940181
-0.00889562
0.00896593
0.0911147
-0.00985525
0.00892917
0.087834
-0.0107307
0.00890133
0.0841809
-0.0114639
0.0088661
0.080143
-0.0119125
0.00877905
0.0756483
-0.011627
0.00852124
0.0703929
-0.00905376
0.00724297
0.0631564
0.00468658
0.0516933
0.00941876
0.00447867
0.0588698
0.0118163
0.0068646
0.0708092
0.0119821
0.00791702
0.0777972
0.0114799
0.00811073
0.0828187
0.0107239
0.00816323
0.0871321
0.00983808
0.00817543
0.0910224
0.00887205
0.00818406
0.0945499
0.0078519
0.00820194
0.0977212
0.00679292
0.00822984
0.100529
0.00570422
0.00826377
0.102963
0.0045916
0.00829846
0.105011
0.00345924
0.00832929
0.106664
0.0023113
0.00835302
0.107912
0.00115246
0.00836803
0.108747
-1.18666e-05
0.00837377
0.109166
-0.00117581
0.00837026
0.109166
-0.00233358
0.00835769
0.108747
-0.00347997
0.00833644
0.107911
-0.00461056
0.00830737
0.106664
-0.00572156
0.00827252
0.105011
-0.00680891
0.00823532
0.102964
-0.00786695
0.0082005
0.10053
-0.00888634
0.0081731
0.0977232
-0.00985132
0.00815669
0.0945523
-0.0107352
0.00814992
0.0910245
-0.0114882
0.00813939
0.0871332
-0.011986
0.00808791
0.0828181
-0.0118155
0.00789466
0.0777947
-0.00941558
0.0068436
0.0708056
0.00446107
0.0588673
0.00969047
0.00410848
0.0654319
0.0119312
0.00625589
0.0777267
0.0120073
0.00711384
0.0844828
0.0114719
0.00726047
0.0893041
0.0107053
0.00729057
0.0934625
0.00981752
0.00728798
0.0972234
0.00885223
0.0072837
0.100638
0.00783335
0.00728785
0.10371
0.00677549
0.00730154
0.106431
0.00568796
0.00732189
0.108791
0.00457702
0.00734476
0.110777
0.00344748
0.00736618
0.112379
0.0023036
0.00738319
0.113589
0.00114989
0.00739396
0.114399
-8.80084e-06
0.00739765
0.114805
-0.00116728
0.00739403
0.114805
-0.00232049
0.00738332
0.114399
-0.00346361
0.00736609
0.113588
-0.0045924
0.00734363
0.112379
-0.00570266
0.00731799
0.110777
-0.0067897
0.00729242
0.108791
-0.00784716
0.00727085
0.106432
-0.00886545
0.00725727
0.103711
-0.00982967
0.00725419
0.100639
-0.0107155
0.00726002
0.0972239
-0.0114791
0.00726426
0.093462
-0.0120107
0.00723571
0.0893022
-0.011931
0.00709091
0.0844797
-0.00968849
0.00623653
0.0777233
0.00409497
0.0654298
0.00989244
0.00361537
0.0712662
0.0119959
0.00547276
0.0838269
0.0120008
0.00615904
0.0903753
0.0114408
0.00626955
0.0950268
0.0106686
0.00628615
0.0990523
0.00978263
0.00627662
0.102701
0.0088223
0.00626603
0.106017
0.00780901
0.00626256
0.109002
0.00675616
0.00626735
0.111647
0.00567283
0.00627837
0.113941
0.00456555
0.0062925
0.115873
0.00343943
0.0063066
0.117432
0.00229907
0.00631809
0.118609
0.00114903
0.00632529
0.119397
-5.90236e-06
0.00632725
0.119792
-0.00116082
0.00632368
0.119792
-0.00231082
0.00631477
0.119397
-0.00345122
0.00630121
0.118608
-0.00457744
0.00628427
0.117432
-0.00568496
0.00626596
0.115873
-0.00676856
0.00624898
0.113942
-0.00782156
0.00623651
0.111648
-0.00883465
0.00623153
0.109002
-0.00979412
0.00623573
0.106017
-0.0106784
0.00624765
0.1027
-0.011448
0.00625884
0.0990508
-0.0120048
0.00624415
0.0950242
-0.0119969
0.00613622
0.0903722
-0.00989177
0.0054546
0.083824
0.00360416
0.0712646
0.0100399
0.00301726
0.0762771
0.0120271
0.00454619
0.0890338
0.0119754
0.00507806
0.0954043
0.0113964
0.00516004
0.0999151
0.0106212
0.005169
0.10383
0.00973902
0.00515813
0.107383
0.00878561
0.00514641
0.110615
0.00778005
0.00514016
0.113526
0.00673443
0.00514044
0.116107
0.00565723
0.00514591
0.118347
0.00455491
0.0051543
0.120232
0.00343283
0.00516323
0.121754
0.00229589
0.00517067
0.122904
0.0011489
0.00517518
0.123674
-3.21677e-06
0.00517588
0.12406
-0.00115549
0.00517252
0.12406
-0.00230289
0.00516523
0.123674
-0.0034405
0.0051547
0.122903
-0.00456349
0.00514207
0.121754
-0.00566684
0.00512903
0.120232
-0.00674504
0.00511778
0.118346
-0.0077914
0.00511069
0.116107
-0.0087972
0.00510993
0.113526
-0.00975011
0.00511659
0.110614
-0.0106309
0.00512938
0.107381
-0.011404
0.00514174
0.103827
-0.0119803
0.00513473
0.0999123
-0.0120294
0.00505552
0.0954013
-0.0100403
0.00452851
0.0890314
0.00300689
0.0762758
0.0101447
0.00233385
0.0803834
0.0120378
0.00350544
0.0932817
0.0119421
0.00389579
0.099507
0.0113485
0.00395464
0.103906
0.010571
0.00396009
0.107731
0.009693
0.00395142
0.111207
0.00874685
0.00394208
0.114371
0.00774951
0.00393661
0.117223
0.00671174
0.00393579
0.119752
0.00564133
0.00393878
0.121946
0.00454451
0.00394402
0.123795
0.00342674
0.0039498
0.125287
0.00229319
0.00395462
0.126414
0.00114897
0.00395735
0.12717
-7.68309e-07
0.00395734
0.127548
-0.00115076
0.00395431
0.127548
-0.00229578
0.00394843
0.127169
-0.00343057
0.00394023
0.126414
-0.0045499
0.00393066
0.125287
-0.00564846
0.00392106
0.123795
-0.00672052
0.00391302
0.121946
-0.00775959
0.00390828
0.119751
-0.00875764
0.00390832
0.117222
-0.00970371
0.00391384
0.11437
-0.0105807
0.00392382
0.111205
-0.0113564
0.00393365
0.107729
-0.0119478
0.00392983
0.103903
-0.012041
0.00387349
0.0995042
-0.0101458
0.0034877
0.0932797
0.00232334
0.0803825
0.010216
0.00158595
0.0835202
0.0120375
0.00237933
0.0965167
0.0119096
0.00263723
0.102631
0.0113049
0.00267678
0.106946
0.0105258
0.00268145
0.110704
0.00965133
0.0026771
0.114122
0.00871145
0.00267234
0.117235
0.0077214
0.00266995
0.120041
0.00669077
0.00267044
0.12253
0.00562664
0.00267324
0.124691
0.00453497
0.00267733
0.126512
0.00342126
0.00268158
0.127982
0.00229085
0.002685
0.129092
0.00114911
0.0026868
0.129836
1.47489e-06
0.00268652
0.130209
-0.00114653
0.00268396
0.130209
-0.00228936
0.00267924
0.129835
-0.00342146
0.00267277
0.129091
-0.00453728
0.00266523
0.127981
-0.00563124
0.00265753
0.126511
-0.00669757
0.00265078
0.12469
-0.00773001
0.00264614
0.122529
-0.0087212
0.00264457
0.120039
-0.00966138
0.00264654
0.117233
-0.0105352
0.00265143
0.11412
-0.0113129
0.00265638
0.110701
-0.0119155
0.0026528
0.106943
-0.0120411
0.0026152
0.102629
-0.0102175
0.00236126
0.0965148
0.00157482
0.0835194
0.01026
0.000795051
0.0856385
0.0120333
0.00119647
0.0986969
0.0118839
0.00132762
0.104737
0.0112719
0.00135035
0.108996
0.0104917
0.00135586
0.112709
0.00961971
0.00135701
0.116088
0.00868434
0.00135798
0.119166
0.00769968
0.00136002
0.121941
0.00667442
0.00136325
0.124404
0.00561512
0.0013673
0.126543
0.00452751
0.00137158
0.128345
0.00341702
0.00137545
0.129799
0.00228914
0.00137833
0.130898
0.00114941
0.00137981
0.131635
3.49718e-06
0.00137959
0.132004
-0.00114287
0.0013776
0.132004
-0.0022839
0.00137389
0.131634
-0.00341379
0.00136871
0.130898
-0.00452678
0.00136245
0.129798
-0.00561713
0.00135564
0.128343
-0.00667906
0.00134891
0.126541
-0.00770652
0.00134294
0.124403
-0.00869271
0.0013383
0.121939
-0.00962872
0.00133533
0.119163
-0.0105004
0.00133387
0.116085
-0.0112795
0.00133265
0.112706
-0.0118897
0.00132755
0.108993
-0.0120369
0.00130607
0.104734
-0.0102616
0.00117816
0.0986951
0.000783206
0.0856376
0.0102809
-1.71194e-05
0.0867056
0.0120296
-1.472e-05
0.0997943
0.0118695
-7.63803e-06
0.105797
0.0112537
-5.177e-07
0.110027
0.0104729
6.53941e-06
0.113718
0.00960214
1.36654e-05
0.117078
0.00866913
2.08126e-05
0.120138
0.00768735
2.78056e-05
0.122899
0.00666506
3.44058e-05
0.125348
0.0056085
4.0371e-05
0.127475
0.00452324
4.5461e-05
0.129268
0.00341472
4.94795e-05
0.130715
0.00228844
5.2269e-05
0.131808
0.00115004
5.37198e-05
0.132541
5.29179e-06
5.37679e-05
0.132908
-0.00113995
5.23979e-05
0.132908
-0.00227978
4.96326e-05
0.13254
-0.00340828
4.55421e-05
0.131808
-0.00451957
4.02248e-05
0.130714
-0.00560785
3.38297e-05
0.129266
-0.00666734
2.6551e-05
0.127474
-0.00769215
1.86248e-05
0.125346
-0.00867575
1.03035e-05
0.122896
-0.0096097
1.86971e-06
0.120136
-0.0104805
-6.41753e-06
0.117075
-0.0112604
-1.43261e-05
0.113715
-0.0118746
-2.16877e-05
0.110024
-0.0120329
-2.83024e-05
0.105794
-0.0102823
-3.29291e-05
0.0997924
-2.94883e-05
0.0867047
0.0102806
-0.000829074
0.0867057
0.012029
-0.00122579
0.0997946
0.0118685
-0.00134289
0.105797
0.0112525
-0.00135149
0.110028
0.0104715
-0.00134301
0.113719
0.00960069
-0.00133004
0.117078
0.00866771
-0.00131686
0.120139
0.00768607
-0.00130506
0.122899
0.00666399
-0.00129521
0.125349
0.00560775
-0.00128744
0.127476
0.00452287
-0.00128162
0.129268
0.00341478
-0.00127752
0.130716
0.00228897
-0.00127487
0.131809
0.00115108
-0.00127348
0.132541
6.8279e-06
-0.00127317
0.132909
-0.00113793
-0.00127389
0.132909
-0.00227732
-0.00127566
0.132541
-0.00340543
-0.00127859
0.131808
-0.0045164
-0.00128287
0.130714
-0.00560445
-0.00128874
0.129267
-0.0066638
-0.00129643
0.127474
-0.00768858
-0.00130616
0.125347
-0.00867227
-0.00131799
0.122897
-0.00960643
-0.00133171
0.120136
-0.0104775
-0.00134663
0.117075
-0.0112579
-0.00136105
0.113715
-0.0118727
-0.00137051
0.110024
-0.0120315
-0.00136211
0.105794
-0.0102817
-0.00124333
0.0997925
-0.000841536
0.0867047
0.0102591
-0.00161928
0.0856387
0.0120312
-0.0024083
0.0986976
0.011881
-0.00265246
0.104738
0.0112683
-0.00267821
0.108997
0.0104876
-0.00266927
0.11271
0.0096154
-0.00265121
0.116089
0.00868013
-0.00263273
0.119167
0.00769585
-0.0026169
0.121943
0.00667126
-0.00260467
0.124406
0.00561287
-0.00259597
0.126544
0.00452638
-0.00259022
0.128346
0.00341719
-0.00258672
0.129801
0.00229072
-0.00258474
0.1309
0.00115247
-0.00258375
0.131636
8.03747e-06
-0.00258337
0.132006
-0.0011369
-0.00258346
0.132006
-0.00227661
-0.00258407
0.131636
-0.00340535
-0.00258551
0.130899
-0.00451741
-0.00258823
0.1298
-0.00560707
-0.00259286
0.128345
-0.0066686
-0.00260014
0.126543
-0.00769599
-0.00261074
0.124404
-0.00868245
-0.00262514
0.12194
-0.00961909
-0.00264326
0.119164
-0.0104918
-0.00266399
0.116086
-0.0112721
-0.00268404
0.112707
-0.0118839
-0.00269452
0.108993
-0.0120329
-0.00266957
0.104735
-0.0102598
-0.00242445
0.0986952
-0.00163123
0.0856375
0.0102143
-0.00236595
0.0835206
0.0120341
-0.00353375
0.0965177
0.0119047
-0.00391088
0.102633
0.0112989
-0.00395648
0.106948
0.0105191
-0.00394895
0.110706
0.00964429
-0.00392725
0.114124
0.00870457
-0.00390488
0.117237
0.00771517
-0.00388663
0.120043
0.00668561
-0.00387368
0.122533
0.00562295
-0.00386568
0.124694
0.00453311
-0.00386152
0.126515
0.0034215
-0.00385985
0.127984
0.00229339
-0.00385952
0.129095
0.00115405
-0.00385959
0.129839
8.84084e-06
-0.00385949
0.130212
-0.00113685
-0.00385898
0.130212
-0.00227754
-0.0038582
0.129838
-0.00340778
-0.00385755
0.129094
-0.00452211
-0.00385779
0.127984
-0.00561498
-0.00385997
0.126513
-0.00668069
-0.00386531
0.124692
-0.00771302
-0.0038751
0.122531
-0.00870465
-0.00389031
0.120041
-0.00964584
-0.00391112
0.117234
-0.0105213
-0.00393606
0.114121
-0.011301
-0.00396012
0.110702
-0.0119062
-0.00396955
0.106944
-0.0120348
-0.00392514
0.102629
-0.0102145
-0.00354764
0.096515
-0.00237666
0.0835192
0.0101424
-0.00304756
0.0803839
0.012033
-0.00457338
0.093283
0.0119354
-0.00509278
0.0995086
0.0113402
-0.00516235
0.103908
0.0105618
-0.00515921
0.107733
0.00968345
-0.00513625
0.11121
0.00873755
-0.00511242
0.114374
0.00774107
-0.00509425
0.117226
0.00670474
-0.00508318
0.119755
0.00563631
-0.00507833
0.12195
0.00454192
-0.00507788
0.123799
0.00342699
-0.00507984
0.125291
0.00229655
-0.00508246
0.126418
0.00115559
-0.00508447
0.127173
9.12129e-06
-0.00508511
0.127552
-0.00113775
-0.0050841
0.127552
-0.0022799
-0.00508159
0.127173
-0.00341222
-0.00507812
0.126418
-0.00452957
-0.00507468
0.12529
-0.00562671
-0.00507268
0.123798
-0.00669798
-0.00507396
0.121949
-0.00773694
-0.00508045
0.119754
-0.0087356
-0.00509381
0.117224
-0.009683
-0.00511466
0.114372
-0.0105621
-0.00514124
0.111207
-0.0113405
-0.00516668
0.10773
-0.0119353
-0.0051718
0.103904
-0.0120324
-0.00510352
0.0995046
-0.0101419
-0.00458405
0.0932799
-0.00305603
0.0803822
0.0100369
-0.0036432
0.0762776
0.0120211
-0.00549828
0.0890352
0.0119669
-0.00617309
0.095406
0.0113862
-0.00627229
0.0999173
0.0106098
-0.00627794
0.103832
0.00972728
-0.00625747
0.107386
0.00877419
-0.00623588
0.110619
0.00776968
-0.00622153
0.11353
0.00672579
-0.00621587
0.116112
0.00565097
-0.0062174
0.118351
0.00455162
-0.00622339
0.120237
0.00343301
-0.00623109
0.121759
0.00229988
-0.00623816
0.122908
0.00115692
-0.0062431
0.123678
8.80865e-06
-0.006245
0.124064
-0.00113962
-0.0062436
0.124064
-0.00228354
-0.00623904
0.123678
-0.00341817
-0.00623195
0.122908
-0.0045388
-0.00622342
0.121758
-0.0056405
-0.00621525
0.120236
-0.00671783
-0.00620977
0.11835
-0.00776412
-0.00620977
0.116111
-0.00877068
-0.00621771
0.113529
-0.00972521
-0.00623479
0.110617
-0.0106085
-0.00625916
0.107384
-0.0113848
-0.00628201
0.103829
-0.011965
-0.00627812
0.0999132
-0.0120189
-0.00617981
0.0954017
-0.0100354
-0.00550472
0.0890315
-0.00364809
0.0762755
0.00988888
-0.00413315
0.0712666
0.0119887
-0.00627904
0.0838282
0.0119908
-0.00712689
0.0903771
0.0114289
-0.0072636
0.0950291
0.0106556
-0.00728415
0.0990553
0.00976916
-0.00727195
0.102704
0.00880919
-0.00725787
0.106021
0.00779703
-0.00725224
0.109006
0.00674611
-0.00725651
0.111652
0.00566548
-0.00726827
0.113946
0.00456159
-0.00728381
0.115878
0.00343944
-0.0072995
0.117437
0.00230351
-0.0073126
0.118614
0.00115812
-0.00732138
0.119402
7.83516e-06
-0.00732502
0.119797
-0.00114266
-0.00732333
0.119797
-0.00228867
-0.00731648
0.119402
-0.00342568
-0.00730502
0.118613
-0.00454928
-0.00729006
0.117436
-0.00565503
-0.00727352
0.115878
-0.00673773
-0.0072583
0.113946
-0.00779077
-0.00724796
0.111651
-0.00880482
-0.00724599
0.109006
-0.00976614
-0.00725442
0.10602
-0.0106532
-0.00727125
0.102703
-0.0114263
-0.00728564
0.0990525
-0.0119875
-0.0072663
0.0950253
-0.0119849
-0.00712963
0.0903726
-0.00988602
-0.00628044
0.0838241
-0.00413276
0.0712642
0.00968636
-0.00449946
0.0654321
0.011923
-0.0068847
0.0777278
0.0119962
-0.00792885
0.0844845
0.0114588
-0.00811432
0.0893065
0.0106911
-0.00815884
0.0934657
0.00980281
-0.00816277
0.0972272
0.00883786
-0.00816287
0.100642
0.00782012
-0.00817206
0.103715
0.00676426
-0.00819158
0.106436
0.00567961
-0.00821789
0.108795
0.0045724
-0.00824617
0.110781
0.00344726
-0.00827202
0.112384
0.00230829
-0.00829242
0.113594
0.00115972
-0.00830573
0.114404
6.20644e-06
-0.00831147
0.11481
-0.0011474
-0.00830961
0.11481
-0.00229621
-0.00830036
0.114404
-0.00343568
-0.00828404
0.113593
-0.00456164
-0.00826151
0.112384
-0.00567006
-0.00823459
0.110781
-0.00675631
-0.00820649
0.108796
-0.00781397
-0.00818159
0.106436
-0.00883346
-0.00816448
0.103715
-0.00979974
-0.00815824
0.100642
-0.0106886
-0.00816097
0.0972266
-0.0114559
-0.00815907
0.093464
-0.0119921
-0.0081151
0.0893034
-0.0119178
-0.00792826
0.0844802
-0.00968213
-0.00688078
0.0777234
-0.00449201
0.0654293
0.00941428
-0.00472619
0.0588698
0.0118076
-0.00728183
0.07081
0.0119705
-0.00855202
0.0777989
0.0114663
-0.00880236
0.0828213
0.010709
-0.0088836
0.0871356
0.00982268
-0.0089138
0.0910266
0.0088568
-0.00893664
0.0945545
0.00783766
-0.00896783
0.0977259
0.00678068
-0.00900844
0.100534
0.00569502
-0.0090537
0.102968
0.00458632
-0.00909762
0.105016
0.00345872
-0.00913532
0.106669
0.00231605
-0.00916375
0.107917
0.00116277
-0.00918189
0.108752
3.96301e-06
-0.0091898
0.109171
-0.00115474
-0.00918791
0.109171
-0.00230786
-0.00917636
0.108752
-0.00345035
-0.00915512
0.107916
-0.00457803
-0.00912437
0.106669
-0.0056872
-0.00908551
0.105016
-0.00677386
-0.00904169
0.102968
-0.00783232
-0.0089979
0.100535
-0.00885318
-0.0089599
0.0977273
-0.00982055
-0.008932
0.094556
-0.0107076
-0.0089124
0.0910277
-0.0114644
-0.00888428
0.0871356
-0.0119668
-0.00880312
0.0828195
-0.011802
-0.00854981
0.0777953
-0.009409
-0.0072732
0.0708056
-0.00471035
0.0588667
0.00905259
-0.00480443
0.0516958
0.0116179
-0.00743035
0.0631603
0.0118949
-0.00896489
0.0703959
0.0114398
-0.00930465
0.0756499
0.0107025
-0.00943999
0.0801438
0.00982485
-0.00950881
0.0841815
0.0088644
-0.00956414
0.0878351
0.00785004
-0.00962517
0.0911167
0.00679744
-0.00969294
0.0940213
0.00571486
-0.00976125
0.0965387
0.00460697
-0.00982317
0.0986575
0.00347712
-0.00987346
0.100367
0.00232931
-0.00990994
0.101657
0.00116859
-0.00993257
0.102522
1.239e-06
-0.00994249
0.102955
-0.00116587
-0.00994065
0.102955
-0.0023259
-0.0099272
0.102521
-0.00347286
-0.00990145
0.101657
-0.00460186
-0.00986269
0.100366
-0.00570938
-0.00981108
0.0986571
-0.00679227
-0.00974921
0.0965389
-0.007846
-0.00968239
0.0940224
-0.00886211
-0.00961754
0.0911188
-0.00982446
-0.00956036
0.0878379
-0.0107034
-0.00950893
0.0841844
-0.0114406
-0.00944293
0.0801459
-0.0118938
-0.00930764
0.0756503
-0.0116136
-0.00896382
0.0703938
-0.0090471
-0.00741907
0.0631565
-0.00477995
0.0516927
0.0085565
-0.00472246
0.0440502
0.011309
-0.00728433
0.0548692
0.0117399
-0.00913008
0.0623489
0.0113632
-0.00959637
0.0678704
0.0106609
-0.00980527
0.0725719
0.00980183
-0.00992586
0.0767735
0.00885592
-0.0100241
0.0805644
0.00785541
-0.0101235
0.0839661
0.00681516
-0.0102248
0.0869767
0.00574148
-0.01032
0.0895866
0.00463719
-0.0104012
0.0917835
0.00350519
-0.0104638
0.093556
0.00235004
-0.0105073
0.0948944
0.00117833
-0.0105336
0.0957908
-1.81897e-06
-0.0105451
0.0962402
-0.00118159
-0.0105434
0.0962399
-0.00235213
-0.0105286
0.09579
-0.00350558
-0.0104994
0.0948932
-0.00463582
-0.0104535
0.0935548
-0.0057387
-0.0103895
0.0917825
-0.00681181
-0.0103083
0.0895862
-0.00785269
-0.0102144
0.0869775
-0.00885499
-0.0101162
0.0839682
-0.00980351
-0.0100212
0.0805679
-0.010665
-0.00992801
0.0767779
-0.0113685
-0.00981139
0.0725763
-0.0117437
-0.00960378
0.0678734
-0.0113089
-0.00913315
0.062349
-0.00855256
-0.00727443
0.0548668
-0.00469144
0.0440476
0.00788956
-0.00447168
0.0360783
0.0108119
-0.00676608
0.0460415
0.011465
-0.00900075
0.053722
0.0112067
-0.00963388
0.0595537
0.0105547
-0.00993032
0.0644924
0.00972558
-0.0101161
0.0688715
0.00880866
-0.0102723
0.0728101
0.00783815
-0.0104233
0.0763427
0.00682445
-0.0105667
0.0794706
0.00576953
-0.0106923
0.082183
0.00467385
-0.0107926
0.0844668
0.00354084
-0.0108662
0.0863095
0.00237696
-0.0109154
0.0877008
0.00119142
-0.0109444
0.0886327
-5.09288e-06
-0.010957
0.0890998
-0.00120095
-0.0109555
0.0890994
-0.00238486
-0.0109399
0.0886316
-0.00354629
-0.0109082
0.0876991
-0.00467648
-0.0108567
0.0863075
-0.00576949
-0.0107816
0.0844648
-0.00682279
-0.0106807
0.0821816
-0.00783622
-0.0105562
0.0794703
-0.00880835
-0.0104158
0.076344
-0.00972839
-0.0102696
0.0728134
-0.0105615
-0.0101194
0.0688767
-0.0112169
-0.00993908
0.0644985
-0.0114759
-0.00964629
0.0595592
-0.010819
-0.00901049
0.053725
-0.00789051
-0.00676212
0.0460413
-0.00444002
0.0360767
0.00694654
-0.00394882
0.0279029
0.010092
-0.00591175
0.0368304
0.0110389
-0.00849831
0.0445885
0.0108957
-0.00926574
0.0507411
0.0102888
-0.00965612
0.0559203
0.00950879
-0.00994174
0.0604818
0.00865435
-0.0101911
0.0645811
0.00774828
-0.0104192
0.0682626
0.00678886
-0.0106182
0.0715255
0.00577116
-0.0107792
0.0743561
0.00469557
-0.0108999
0.0767394
0.00356799
-0.0109845
0.0786621
0.00239926
-0.0110397
0.0801134
0.00120239
-0.0110719
0.0810852
-8.30166e-06
-0.0110861
0.0815722
-0.00121834
-0.0110848
0.0815717
-0.00241309
-0.0110681
0.0810838
-0.00357859
-0.0110335
0.0801112
-0.00470222
-0.0109761
0.0786593
-0.00577393
-0.0108897
0.0767363
-0.00678834
-0.010768
0.0743532
-0.00774616
-0.0106074
0.0715234
-0.00865282
-0.0104106
0.0682621
-0.00951022
-0.0101872
0.0645828
-0.0102956
-0.00994393
0.060486
-0.0109081
-0.00966568
0.0559267
-0.0110552
-0.00928127
0.0507481
-0.0101075
-0.00851412
0.0445938
-0.00695359
-0.00591835
0.0368325
-0.00392406
0.0279027
0.00680813
-0.00438462
0.0198943
0.00948812
-0.00393491
0.02727
0.0103375
-0.00710055
0.0350801
0.0101295
-0.00795478
0.0413346
0.00958647
-0.00853918
0.0466557
0.00894376
-0.0090147
0.0513919
0.00824288
-0.00941732
0.0556798
0.0074735
-0.00975649
0.0595427
0.00661924
-0.0100286
0.0629703
0.00567371
-0.0102353
0.0659448
0.004643
-0.0103855
0.0684488
0.00354137
-0.0104904
0.070468
0.0023863
-0.01056
0.0719914
0.00119601
-0.0106018
0.0730111
-1.13922e-05
-0.010621
0.073522
-0.00121795
-0.01062
0.0735215
-0.00240578
-0.0105991
0.0730096
-0.00355699
-0.0105554
0.071989
-0.00465364
-0.0104839
0.0704648
-0.00567883
-0.010377
0.068445
-0.00661915
-0.0102253
0.0659408
-0.00746951
-0.0100179
0.0629665
-0.00823715
-0.00974681
0.0595399
-0.00893958
-0.0094108
0.0556788
-0.00958681
-0.00901379
0.0513933
-0.0101374
-0.00854529
0.0466598
-0.0103531
-0.00796863
0.0413407
-0.009506
-0.00711992
0.0350859
-0.00681473
-0.00395645
0.0272736
-0.00436731
0.0198951
0.00319295
-0.000261679
0.00970581
0.00547433
-0.00119854
0.0178719
0.00653718
-0.00456182
0.0248865
0.00682695
-0.00515635
0.0306975
0.0068972
-0.00580751
0.035951
0.00680014
-0.00636676
0.0408112
0.0065548
-0.00686081
0.0452762
0.00615392
-0.00726961
0.049319
0.00559212
-0.00759146
0.0529184
0.0048803
-0.00783835
0.0560494
0.00404302
-0.00802508
0.0586876
0.00310914
-0.0081633
0.0608155
0.00210543
-0.00826029
0.062421
0.00105684
-0.00832171
0.0634958
-1.34108e-05
-0.00835121
0.0640344
-0.00108279
-0.00835078
0.064034
-0.00212886
-0.00832036
0.0634947
-0.00312833
-0.00825796
0.0624191
-0.00405659
-0.00815971
0.0608128
-0.00488698
-0.00802011
0.0586843
-0.00559136
-0.00783186
0.0560454
-0.0061459
-0.00758373
0.0529141
-0.00654118
-0.00726154
0.049315
-0.00678405
-0.00685367
0.0452731
-0.00688303
-0.00636238
0.0408097
-0.00681916
-0.00580777
0.0359516
-0.00654191
-0.00516026
0.0307001
-0.00548748
-0.00457662
0.0248903
-0.00321572
-0.00121453
0.017876
-0.00026847
0.00970714
-3.58722e-05
0.00753358
0.00285103
0.0097526
0.00293136
0.0149952
0.00329304
0.0196069
0.00356575
0.02419
0.00371984
0.0285235
0.00374121
0.0325385
0.00362441
0.036222
0.0033666
0.0395509
0.00298422
0.0424743
0.00250049
0.0449535
0.00193819
0.046963
0.00131891
0.048485
0.000662651
0.0495069
-1.14762e-05
0.0500199
-0.000684966
0.0500197
-0.00133925
0.0495063
-0.00195512
0.048484
-0.00251231
0.0469614
-0.00298906
0.0449515
-0.00336248
0.0424718
-0.00360977
0.0395481
-0.00371565
0.0362191
-0.00368445
0.0325358
-0.00352373
0.0285212
-0.00324977
0.0241885
-0.00289148
0.0196064
-0.00282628
0.0149955
4.3776e-05
0.00975347
0.00753469
0.00076648
0.000406439
0.00636018
0.001165
0.00082378
0.00853002
0.00103218
0.00175674
0.0133713
0.00101443
0.00209407
0.0175308
0.00100214
0.00258835
0.0216143
0.00101104
0.00306498
0.0254501
0.0010188
0.00352912
0.0290021
0.00100959
0.00396593
0.0322659
0.000971238
0.00436654
0.0352234
0.000897113
0.0047234
0.0378256
0.000785031
0.00503134
0.0400347
0.000636576
0.00528583
0.0418259
0.000456655
0.00548211
0.0431831
0.000253234
0.00561583
0.0440946
3.66586e-05
0.00568392
0.0445526
-0.000181563
0.00568501
0.044553
-0.000390009
0.00561913
0.0440957
-0.000578893
0.00548816
0.0431849
-0.000741069
0.0052954
0.0418286
-0.000872616
0.00504539
0.0400381
-0.000972752
0.00474282
0.0378297
-0.00104338
0.0043913
0.0352279
-0.0010885
0.00399406
0.0322706
-0.00111416
0.00355528
0.0290064
-0.00112806
0.0030819
0.0254534
-0.00114703
0.00259136
0.0216162
-0.00114417
0.00207236
0.0175311
-0.0012336
0.00171441
0.0133704
-0.000780077
0.000771501
0.0085283
0.000396338
0.00635801
0.000938081
0.000778991
0.00839453