/*--------------------------------*- C++ -*----------------------------------*\
| =========                 |                                                 |
| \\      /  F ield         | OpenFOAM: The Open Source CFD Toolbox           |
|  \\    /   O peration     | Version:  2312                                  |
|   \\  /    A nd           | Website:  www.openfoam.com                      |
|    \\/     M anipulation  |                                                 |
\*---------------------------------------------------------------------------*/
FoamFile
{
    version     2.0;
    format      ascii;
    arch        "LSB;label=32;scalar=64";
    class       volScalarField;
    location    "500";
    object      T;
}
// * * * * * * * * * * * * * * * * * * * * * * * * * * * * * * * * * * * * * //

dimensions      [0 0 0 1 0 0 0];

internalField   nonuniform List<scalar> 
27000
(
426.521
355.985
347.349
343.158
342.429
342.496
342.7
342.93
343.162
343.364
343.531
343.665
343.765
343.831
343.864
343.864
343.831
343.765
343.666
343.533
343.366
343.164
342.932
342.702
342.497
342.428
343.153
347.34
355.97
426.5
335.764
354.599
348.579
346.928
346.594
346.744
346.95
347.121
347.259
347.367
347.451
347.515
347.561
347.591
347.606
347.607
347.592
347.563
347.517
347.454
347.371
347.262
347.124
346.951
346.743
346.591
346.922
348.572
354.592
335.768
342.278
345.598
348.204
347.998
347.839
347.841
347.903
347.964
348.011
348.046
348.072
348.091
348.105
348.115
348.119
348.12
348.116
348.107
348.094
348.075
348.049
348.014
347.966
347.903
347.839
347.836
347.994
348.201
345.597
342.278
342.219
346.077
347.698
348.03
348.049
348.052
348.076
348.106
348.131
348.15
348.163
348.172
348.179
348.183
348.185
348.186
348.184
348.181
348.175
348.166
348.152
348.133
348.107
348.076
348.051
348.047
348.028
347.697
346.076
342.218
342.638
346.592
347.803
348.045
348.099
348.112
348.123
348.139
348.153
348.165
348.173
348.179
348.183
348.185
348.186
348.187
348.186
348.184
348.181
348.175
348.167
348.155
348.139
348.123
348.111
348.098
348.044
347.802
346.591
342.638
343.059
346.946
347.914
348.09
348.129
348.139
348.143
348.15
348.157
348.164
348.169
348.172
348.174
348.176
348.176
348.177
348.176
348.175
348.173
348.17
348.165
348.158
348.15
348.143
348.138
348.129
348.089
347.914
346.946
343.06
343.456
347.194
347.988
348.125
348.152
348.156
348.155
348.155
348.157
348.16
348.162
348.163
348.165
348.165
348.166
348.166
348.166
348.166
348.165
348.163
348.161
348.158
348.156
348.155
348.155
348.152
348.125
347.989
347.195
343.457
343.801
347.377
348.04
348.149
348.167
348.166
348.162
348.158
348.156
348.156
348.156
348.157
348.157
348.157
348.158
348.158
348.158
348.158
348.158
348.157
348.157
348.157
348.159
348.162
348.166
348.168
348.149
348.041
347.378
343.801
344.095
347.516
348.079
348.165
348.177
348.173
348.166
348.16
348.156
348.154
348.153
348.152
348.152
348.152
348.152
348.152
348.153
348.153
348.153
348.153
348.154
348.156
348.16
348.166
348.173
348.177
348.166
348.079
347.516
344.096
344.34
347.621
348.108
348.177
348.183
348.176
348.167
348.16
348.155
348.152
348.151
348.15
348.149
348.149
348.149
348.149
348.149
348.15
348.15
348.151
348.153
348.156
348.161
348.168
348.176
348.183
348.177
348.108
347.621
344.34
344.534
347.7
348.13
348.186
348.187
348.178
348.168
348.16
348.155
348.151
348.149
348.148
348.148
348.148
348.147
348.148
348.148
348.148
348.149
348.15
348.152
348.155
348.161
348.168
348.178
348.187
348.186
348.13
347.7
344.533
344.681
347.758
348.147
348.192
348.189
348.179
348.168
348.16
348.155
348.151
348.149
348.148
348.147
348.147
348.147
348.147
348.147
348.147
348.148
348.149
348.151
348.155
348.16
348.168
348.179
348.189
348.192
348.146
347.758
344.68
344.787
347.798
348.158
348.196
348.191
348.179
348.168
348.16
348.154
348.151
348.149
348.148
348.147
348.147
348.147
348.147
348.147
348.147
348.148
348.149
348.151
348.154
348.16
348.168
348.179
348.191
348.196
348.157
347.797
344.786
344.855
347.824
348.165
348.199
348.192
348.179
348.168
348.16
348.154
348.151
348.149
348.148
348.148
348.148
348.148
348.148
348.148
348.148
348.148
348.149
348.151
348.155
348.16
348.168
348.179
348.192
348.198
348.164
347.823
344.854
344.889
347.836
348.169
348.201
348.193
348.18
348.169
348.16
348.155
348.151
348.15
348.149
348.148
348.148
348.148
348.148
348.148
348.148
348.149
348.15
348.152
348.155
348.16
348.169
348.18
348.192
348.2
348.168
347.835
344.888
344.889
347.837
348.169
348.201
348.193
348.18
348.169
348.161
348.155
348.152
348.15
348.149
348.149
348.149
348.149
348.149
348.149
348.149
348.15
348.15
348.152
348.156
348.161
348.169
348.18
348.193
348.201
348.169
347.836
344.888
344.856
347.825
348.167
348.201
348.194
348.181
348.17
348.162
348.156
348.153
348.151
348.15
348.15
348.15
348.15
348.15
348.15
348.15
348.15
348.151
348.153
348.157
348.162
348.17
348.181
348.194
348.201
348.166
347.824
344.855
344.788
347.801
348.161
348.199
348.194
348.182
348.171
348.163
348.158
348.154
348.152
348.151
348.151
348.151
348.151
348.151
348.151
348.151
348.151
348.153
348.155
348.158
348.164
348.172
348.183
348.194
348.2
348.161
347.8
344.787
344.682
347.761
348.15
348.196
348.194
348.183
348.173
348.165
348.159
348.155
348.153
348.152
348.152
348.152
348.152
348.152
348.152
348.152
348.153
348.154
348.156
348.16
348.165
348.173
348.184
348.194
348.197
348.151
347.762
344.682
344.535
347.704
348.135
348.191
348.192
348.183
348.174
348.166
348.16
348.157
348.155
348.154
348.154
348.154
348.154
348.154
348.154
348.154
348.155
348.156
348.158
348.161
348.167
348.174
348.184
348.193
348.192
348.136
347.705
344.536
344.342
347.626
348.114
348.184
348.189
348.182
348.174
348.167
348.162
348.159
348.157
348.156
348.156
348.156
348.156
348.156
348.156
348.157
348.157
348.158
348.159
348.162
348.167
348.175
348.183
348.191
348.185
348.115
347.627
344.343
344.098
347.521
348.086
348.173
348.184
348.18
348.173
348.167
348.163
348.161
348.16
348.16
348.16
348.16
348.16
348.16
348.161
348.161
348.161
348.161
348.162
348.164
348.167
348.173
348.181
348.185
348.174
348.087
347.523
344.1
343.805
347.384
348.048
348.157
348.175
348.174
348.169
348.165
348.164
348.164
348.164
348.165
348.166
348.166
348.167
348.167
348.167
348.166
348.166
348.165
348.165
348.165
348.166
348.169
348.174
348.176
348.158
348.05
347.386
343.806
343.461
347.201
347.997
348.134
348.16
348.163
348.162
348.162
348.165
348.167
348.17
348.172
348.174
348.175
348.175
348.176
348.175
348.175
348.173
348.171
348.168
348.165
348.163
348.162
348.163
348.161
348.135
347.998
347.203
343.463
343.064
346.953
347.923
348.098
348.137
348.146
348.15
348.157
348.165
348.172
348.177
348.181
348.184
348.186
348.186
348.187
348.186
348.185
348.183
348.179
348.173
348.165
348.157
348.15
348.145
348.137
348.098
347.924
346.955
343.066
342.643
346.599
347.812
348.053
348.106
348.118
348.129
348.145
348.161
348.173
348.182
348.189
348.193
348.196
348.197
348.197
348.197
348.194
348.19
348.184
348.175
348.162
348.146
348.129
348.117
348.104
348.052
347.811
346.6
342.644
342.225
346.085
347.707
348.036
348.054
348.056
348.081
348.112
348.138
348.158
348.172
348.182
348.189
348.194
348.196
348.196
348.195
348.191
348.184
348.175
348.16
348.14
348.112
348.08
348.055
348.051
348.034
347.705
346.085
342.226
342.286
345.608
348.211
348
347.84
347.843
347.906
347.969
348.018
348.054
348.081
348.101
348.115
348.125
348.13
348.13
348.126
348.117
348.103
348.084
348.057
348.02
347.971
347.907
347.841
347.836
347.996
348.207
345.607
342.288
335.777
354.605
348.577
346.924
346.591
346.744
346.952
347.126
347.265
347.374
347.459
347.523
347.569
347.599
347.614
347.615
347.601
347.571
347.525
347.462
347.378
347.268
347.129
346.953
346.743
346.587
346.917
348.569
354.596
335.78
426.528
355.978
347.342
343.153
342.427
342.496
342.701
342.932
343.165
343.367
343.534
343.668
343.768
343.834
343.867
343.867
343.834
343.769
343.669
343.536
343.37
343.167
342.935
342.703
342.497
342.426
343.148
347.332
355.963
426.502
447.833
363.453
347.675
339.175
336.6
336.023
336.013
336.177
336.406
336.636
336.836
336.995
337.113
337.191
337.23
337.23
337.189
337.11
336.991
336.831
336.629
336.398
336.169
336.007
336.021
336.608
339.199
347.718
363.514
447.935
332.368
361.353
352.326
346.996
344.152
343.305
343.319
343.585
343.883
344.151
344.369
344.536
344.656
344.733
344.771
344.77
344.73
344.651
344.529
344.36
344.141
343.873
343.576
343.315
343.309
344.168
347.023
352.356
361.386
332.368
337.065
343.735
349.472
348.884
347.606
346.897
346.697
346.729
346.831
346.937
347.026
347.095
347.145
347.177
347.192
347.191
347.173
347.139
347.088
347.017
346.928
346.823
346.724
346.697
346.905
347.622
348.904
349.491
343.746
337.07
336.067
341.913
346.423
348.004
348.081
347.864
347.725
347.689
347.706
347.739
347.771
347.798
347.819
347.831
347.837
347.836
347.828
347.814
347.792
347.765
347.732
347.701
347.687
347.728
347.872
348.093
348.017
346.435
341.921
336.071
336.45
342.346
346.044
347.514
347.963
348.031
348.006
347.986
347.984
347.993
348.006
348.017
348.026
348.032
348.035
348.034
348.03
348.022
348.012
348.001
347.989
347.981
347.986
348.01
348.037
347.972
347.523
346.051
342.348
336.449
336.816
343.147
346.353
347.491
347.903
348.041
348.076
348.081
348.083
348.087
348.093
348.098
348.102
348.105
348.106
348.106
348.103
348.1
348.095
348.089
348.085
348.082
348.082
348.079
348.045
347.908
347.495
346.354
343.145
336.814
337.216
343.798
346.673
347.589
347.916
348.045
348.096
348.114
348.121
348.125
348.128
348.131
348.133
348.134
348.134
348.134
348.133
348.131
348.128
348.126
348.123
348.121
348.115
348.098
348.048
347.918
347.59
346.671
343.794
337.212
337.628
344.299
346.911
347.685
347.951
348.059
348.107
348.128
348.136
348.14
348.142
348.144
348.144
348.145
348.145
348.144
348.144
348.143
348.142
348.141
348.139
348.136
348.128
348.108
348.06
347.951
347.684
346.908
344.295
337.625
338.002
344.688
347.085
347.76
347.984
348.075
348.116
348.135
348.143
348.146
348.147
348.148
348.148
348.147
348.147
348.147
348.147
348.147
348.146
348.146
348.145
348.143
348.135
348.116
348.075
347.983
347.758
347.082
344.685
338
338.323
344.988
347.214
347.816
348.012
348.09
348.125
348.14
348.146
348.148
348.149
348.148
348.148
348.147
348.147
348.146
348.146
348.147
348.147
348.148
348.148
348.146
348.139
348.124
348.089
348.01
347.814
347.211
344.986
338.322
338.591
345.218
347.31
347.859
348.034
348.102
348.132
348.144
348.148
348.149
348.148
348.147
348.146
348.146
348.145
348.145
348.145
348.146
348.147
348.148
348.148
348.147
348.143
348.13
348.101
348.032
347.857
347.308
345.216
338.59
338.805
345.39
347.38
347.891
348.051
348.112
348.137
348.147
348.149
348.149
348.148
348.146
348.145
348.144
348.143
348.143
348.144
348.144
348.146
348.147
348.148
348.148
348.145
348.136
348.111
348.049
347.889
347.379
345.389
338.805
338.966
345.513
347.429
347.913
348.063
348.119
348.141
348.149
348.15
348.149
348.147
348.145
348.144
348.143
348.142
348.142
348.142
348.143
348.145
348.146
348.148
348.149
348.147
348.14
348.118
348.062
347.912
347.429
345.513
338.966
339.072
345.593
347.461
347.928
348.071
348.124
348.144
348.15
348.15
348.149
348.147
348.145
348.143
348.142
348.141
348.141
348.142
348.142
348.144
348.146
348.148
348.149
348.149
348.142
348.122
348.07
347.926
347.46
345.593
339.073
339.125
345.632
347.477
347.935
348.075
348.126
348.145
348.15
348.15
348.149
348.146
348.144
348.142
348.141
348.141
348.141
348.141
348.142
348.143
348.145
348.147
348.149
348.149
348.143
348.124
348.073
347.933
347.476
345.632
339.126
339.125
345.632
347.476
347.935
348.075
348.126
348.145
348.15
348.15
348.148
348.146
348.144
348.142
348.141
348.14
348.14
348.141
348.141
348.143
348.145
348.147
348.149
348.149
348.143
348.124
348.073
347.933
347.475
345.631
339.126
339.072
345.592
347.461
347.927
348.071
348.123
348.143
348.149
348.15
348.148
348.145
348.143
348.142
348.141
348.14
348.14
348.14
348.141
348.143
348.145
348.147
348.148
348.147
348.141
348.121
348.068
347.925
347.459
345.592
339.072
338.965
345.512
347.428
347.912
348.062
348.118
348.14
348.147
348.148
348.147
348.145
348.143
348.142
348.141
348.14
348.14
348.141
348.141
348.143
348.144
348.146
348.147
348.146
348.138
348.115
348.059
347.909
347.426
345.511
338.965
338.805
345.389
347.378
347.889
348.049
348.11
348.135
348.145
348.147
348.147
348.145
348.144
348.142
348.141
348.141
348.141
348.141
348.142
348.143
348.145
348.146
348.146
348.143
348.133
348.108
348.046
347.885
347.375
345.386
338.803
338.59
345.216
347.307
347.856
348.031
348.1
348.129
348.141
348.145
348.146
348.145
348.144
348.143
348.142
348.141
348.141
348.142
348.142
348.143
348.145
348.145
348.144
348.14
348.127
348.097
348.028
347.852
347.303
345.212
338.588
338.322
344.986
347.211
347.813
348.009
348.087
348.121
348.137
348.143
348.145
348.145
348.144
348.143
348.142
348.142
348.142
348.142
348.143
348.143
348.144
348.144
348.142
348.136
348.12
348.085
348.005
347.808
347.205
344.981
338.319
338.001
344.685
347.081
347.756
347.981
348.072
348.113
348.131
348.139
348.142
348.143
348.143
348.142
348.142
348.142
348.142
348.142
348.142
348.142
348.142
348.142
348.139
348.131
348.112
348.071
347.978
347.752
347.075
344.679
337.997
337.626
344.295
346.906
347.681
347.947
348.056
348.103
348.124
348.132
348.135
348.137
348.138
348.138
348.138
348.138
348.138
348.138
348.138
348.137
348.137
348.135
348.133
348.125
348.104
348.056
347.946
347.678
346.901
344.288
337.621
337.212
343.794
346.668
347.585
347.912
348.042
348.092
348.11
348.116
348.119
348.122
348.124
348.126
348.127
348.127
348.127
348.126
348.125
348.123
348.121
348.119
348.117
348.112
348.095
348.044
347.914
347.584
346.664
343.787
337.207
336.813
343.143
346.349
347.487
347.9
348.038
348.073
348.077
348.078
348.081
348.085
348.09
348.094
348.097
348.098
348.098
348.096
348.093
348.088
348.084
348.08
348.079
348.08
348.077
348.043
347.904
347.49
346.348
343.138
336.808
336.447
342.342
346.041
347.512
347.962
348.029
348.003
347.981
347.978
347.986
347.997
348.008
348.017
348.023
348.026
348.025
348.021
348.015
348.005
347.995
347.984
347.978
347.984
348.009
348.037
347.971
347.519
346.045
342.342
336.444
336.063
341.909
346.42
348.003
348.082
347.864
347.723
347.684
347.699
347.73
347.762
347.789
347.809
347.822
347.828
347.827
347.82
347.805
347.784
347.758
347.726
347.697
347.685
347.729
347.874
348.095
348.016
346.429
341.913
336.064
337.059
343.728
349.472
348.889
347.611
346.899
346.694
346.724
346.823
346.927
347.016
347.085
347.135
347.167
347.182
347.181
347.164
347.131
347.079
347.009
346.921
346.818
346.722
346.698
346.91
347.628
348.909
349.489
343.737
337.061
332.347
361.351
352.337
347.008
344.16
343.307
343.316
343.578
343.875
344.142
344.36
344.527
344.647
344.725
344.763
344.762
344.723
344.643
344.521
344.353
344.133
343.867
343.572
343.315
343.314
344.178
347.036
352.367
361.381
332.346
447.848
363.478
347.694
339.185
336.603
336.022
336.01
336.173
336.4
336.63
336.83
336.99
337.108
337.186
337.226
337.225
337.185
337.105
336.986
336.825
336.624
336.393
336.166
336.005
336.022
336.613
339.21
347.734
363.531
447.941
445.405
362.179
346.606
337.598
334.431
333.442
333.188
333.177
333.251
333.34
333.425
333.498
333.557
333.597
333.618
333.619
333.6
333.562
333.507
333.436
333.354
333.266
333.192
333.199
333.442
334.409
337.54
346.512
362.056
445.177
332.032
360.32
352.407
346.625
342.722
340.965
340.458
340.506
340.751
341.032
341.289
341.499
341.657
341.763
341.816
341.817
341.767
341.665
341.511
341.304
341.05
340.769
340.52
340.461
340.951
342.684
346.566
352.341
360.246
332.021
336.011
343.313
349.577
349.115
347.145
345.649
345.001
344.902
345.037
345.231
345.412
345.557
345.663
345.733
345.768
345.77
345.739
345.673
345.57
345.427
345.247
345.052
344.91
344.997
345.629
347.11
349.072
349.537
343.288
335.998
333.886
340.17
345.401
347.809
347.993
347.506
347.128
346.984
346.991
347.059
347.136
347.203
347.253
347.286
347.303
347.305
347.291
347.262
347.215
347.149
347.071
347
346.986
347.12
347.487
347.967
347.782
345.38
340.156
333.878
333.848
339.715
344.114
346.724
347.713
347.865
347.787
347.717
347.699
347.718
347.75
347.781
347.806
347.822
347.831
347.833
347.827
347.813
347.79
347.759
347.726
347.704
347.716
347.78
347.852
347.697
346.71
344.105
339.712
333.852
334.014
340.215
344.272
346.56
347.541
347.877
347.957
347.962
347.961
347.97
347.986
348.002
348.016
348.026
348.031
348.032
348.029
348.021
348.008
347.992
347.975
347.964
347.961
347.952
347.87
347.533
346.557
344.274
340.223
334.023
334.187
340.84
344.819
346.761
347.559
347.883
348.006
348.048
348.064
348.075
348.086
348.097
348.105
348.112
348.116
348.117
348.115
348.109
348.101
348.091
348.079
348.066
348.048
348.004
347.881
347.559
346.765
344.828
340.853
334.197
334.372
341.414
345.317
346.996
347.645
347.916
348.034
348.086
348.11
348.123
348.133
348.141
348.147
348.152
348.154
348.155
348.153
348.15
348.144
348.136
348.126
348.112
348.087
348.035
347.918
347.65
347.004
345.329
341.428
334.382
334.565
341.91
345.693
347.183
347.732
347.956
348.059
348.108
348.133
348.147
348.156
348.162
348.166
348.169
348.171
348.172
348.171
348.168
348.164
348.158
348.15
348.136
348.111
348.062
347.961
347.738
347.192
345.705
341.922
334.572
334.751
342.327
345.97
347.318
347.798
347.991
348.08
348.124
348.147
348.16
348.167
348.172
348.175
348.177
348.178
348.179
348.178
348.176
348.174
348.169
348.162
348.15
348.127
348.084
347.997
347.805
347.327
345.98
342.336
334.756
334.917
342.664
346.174
347.413
347.845
348.018
348.096
348.136
348.156
348.167
348.172
348.176
348.178
348.179
348.18
348.18
348.18
348.179
348.178
348.175
348.169
348.159
348.139
348.101
348.023
347.852
347.421
346.181
342.67
334.921
335.057
342.924
346.32
347.48
347.878
348.036
348.108
348.144
348.162
348.171
348.175
348.177
348.179
348.18
348.18
348.18
348.18
348.18
348.179
348.177
348.173
348.164
348.147
348.112
348.041
347.884
347.486
346.326
342.928
335.059
335.165
343.112
346.423
347.526
347.9
348.048
348.116
348.149
348.165
348.173
348.176
348.178
348.179
348.179
348.179
348.18
348.18
348.18
348.179
348.178
348.175
348.168
348.152
348.12
348.053
347.905
347.53
346.427
343.115
335.167
335.239
343.234
346.487
347.554
347.914
348.056
348.121
348.152
348.167
348.174
348.177
348.178
348.179
348.179
348.179
348.179
348.179
348.179
348.179
348.179
348.176
348.17
348.155
348.124
348.06
347.918
347.558
346.49
343.236
335.24
335.278
343.294
346.517
347.568
347.921
348.06
348.123
348.154
348.168
348.175
348.177
348.178
348.179
348.179
348.179
348.179
348.179
348.179
348.18
348.179
348.177
348.171
348.157
348.127
348.064
347.924
347.571
346.521
343.296
335.279
335.278
343.294
346.518
347.568
347.921
348.06
348.124
348.154
348.169
348.175
348.178
348.179
348.179
348.179
348.179
348.179
348.179
348.18
348.18
348.179
348.177
348.171
348.157
348.127
348.064
347.925
347.572
346.521
343.296
335.279
335.24
343.235
346.488
347.555
347.915
348.057
348.122
348.153
348.168
348.175
348.178
348.179
348.18
348.18
348.18
348.18
348.18
348.18
348.18
348.179
348.177
348.17
348.156
348.125
348.061
347.919
347.559
346.491
343.238
335.241
335.166
343.114
346.424
347.528
347.902
348.051
348.118
348.151
348.167
348.175
348.178
348.18
348.181
348.181
348.181
348.181
348.181
348.181
348.181
348.179
348.176
348.169
348.153
348.121
348.054
347.907
347.532
346.429
343.117
335.168
335.058
342.926
346.323
347.483
347.881
348.039
348.111
348.146
348.164
348.173
348.178
348.18
348.181
348.182
348.182
348.182
348.182
348.182
348.181
348.178
348.174
348.165
348.148
348.114
348.043
347.886
347.489
346.329
342.931
335.061
334.919
342.667
346.177
347.417
347.849
348.021
348.1
348.139
348.159
348.17
348.176
348.179
348.181
348.182
348.183
348.183
348.183
348.181
348.179
348.176
348.17
348.16
348.14
348.102
348.025
347.854
347.424
346.185
342.673
334.923
334.753
342.331
345.975
347.323
347.803
347.995
348.084
348.128
348.151
348.163
348.171
348.175
348.179
348.181
348.182
348.182
348.181
348.179
348.176
348.171
348.163
348.151
348.128
348.085
347.998
347.808
347.33
345.984
342.339
334.759
334.568
341.915
345.699
347.188
347.736
347.961
348.063
348.112
348.137
348.151
348.16
348.166
348.171
348.174
348.175
348.175
348.174
348.171
348.166
348.16
348.151
348.136
348.111
348.062
347.962
347.74
347.195
345.708
341.926
334.576
334.376
341.42
345.323
347.001
347.65
347.92
348.038
348.09
348.114
348.128
348.138
348.146
348.152
348.156
348.159
348.159
348.157
348.153
348.146
348.138
348.127
348.112
348.087
348.034
347.918
347.65
347.006
345.333
341.431
334.385
334.191
340.846
344.824
346.766
347.563
347.887
348.01
348.053
348.069
348.081
348.092
348.102
348.111
348.117
348.121
348.121
348.118
348.112
348.103
348.092
348.079
348.066
348.047
348.003
347.88
347.558
346.766
344.83
340.856
334.201
334.018
340.22
344.276
346.563
347.543
347.879
347.96
347.967
347.967
347.976
347.992
348.009
348.022
348.032
348.037
348.037
348.033
348.024
348.011
347.993
347.976
347.963
347.959
347.95
347.867
347.531
346.556
344.275
340.224
334.025
333.851
339.717
344.115
346.725
347.713
347.866
347.79
347.722
347.706
347.725
347.758
347.789
347.813
347.829
347.837
347.838
347.831
347.816
347.793
347.761
347.727
347.703
347.714
347.776
347.848
347.693
346.707
344.104
339.712
333.853
333.887
340.17
345.4
347.807
347.991
347.506
347.131
346.99
346.998
347.067
347.145
347.211
347.26
347.293
347.309
347.31
347.296
347.266
347.218
347.151
347.072
346.999
346.984
347.116
347.481
347.961
347.777
345.377
340.154
333.878
336.011
343.311
349.572
349.109
347.141
345.649
345.005
344.909
345.046
345.24
345.42
345.565
345.671
345.739
345.774
345.775
345.743
345.677
345.573
345.429
345.248
345.052
344.908
344.993
345.623
347.102
349.065
349.532
343.286
335.997
332.038
360.31
352.395
346.615
342.718
340.966
340.462
340.513
340.759
341.04
341.296
341.506
341.663
341.768
341.821
341.822
341.771
341.669
341.514
341.306
341.052
340.769
340.519
340.458
340.945
342.676
346.556
352.331
360.241
332.031
445.368
362.154
346.589
337.589
334.43
333.445
333.193
333.183
333.257
333.346
333.431
333.504
333.561
333.601
333.622
333.623
333.604
333.565
333.509
333.438
333.356
333.267
333.192
333.198
333.438
334.403
337.531
346.498
362.038
445.157
442.815
361.436
346.397
337.291
333.681
332.256
331.703
331.513
331.481
331.505
331.544
331.584
331.617
331.641
331.652
331.65
331.635
331.607
331.57
331.525
331.482
331.456
331.489
331.688
332.263
333.731
337.408
346.581
361.666
443.21
331.323
359.094
351.925
346.351
342.16
339.859
338.846
338.535
338.556
338.706
338.887
339.053
339.185
339.275
339.319
339.316
339.267
339.171
339.033
338.862
338.678
338.528
338.514
338.843
339.888
342.229
346.454
352.04
359.217
331.317
335.484
342.762
349.084
348.84
346.77
344.811
343.612
343.09
342.986
343.086
343.256
343.427
343.568
343.664
343.711
343.708
343.654
343.551
343.405
343.229
343.057
342.962
343.078
343.621
344.846
346.829
348.909
349.144
342.791
335.498
332.841
339.274
344.665
347.412
347.782
347.122
346.413
345.998
345.856
345.875
345.96
346.057
346.139
346.195
346.222
346.219
346.185
346.123
346.036
345.937
345.852
345.839
345.994
346.427
347.154
347.824
347.452
344.692
339.29
332.853
332.384
338.219
342.778
345.86
347.342
347.663
347.521
347.329
347.217
347.185
347.199
347.23
347.263
347.286
347.297
347.294
347.278
347.25
347.214
347.181
347.169
347.208
347.33
347.533
347.685
347.367
345.878
342.785
338.218
332.377
332.342
338.296
342.419
345.298
346.962
347.632
347.795
347.782
347.74
347.714
347.709
347.716
347.727
347.735
347.739
347.737
347.729
347.717
347.704
347.697
347.704
347.734
347.783
347.802
347.642
346.97
345.3
342.41
338.28
332.325
332.404
338.694
342.721
345.408
346.914
347.585
347.845
347.924
347.937
347.933
347.93
347.931
347.935
347.937
347.938
347.937
347.933
347.927
347.923
347.922
347.926
347.933
347.923
347.846
347.586
346.91
345.397
342.701
338.671
332.384
332.505
339.139
343.201
345.745
347.028
347.606
347.865
347.974
348.015
348.028
348.032
348.034
348.036
348.037
348.037
348.036
348.033
348.031
348.028
348.026
348.022
348.01
347.97
347.861
347.6
347.017
345.726
343.177
339.115
332.488
332.624
339.558
343.677
346.076
347.174
347.662
347.891
348
348.051
348.073
348.083
348.087
348.089
348.09
348.09
348.089
348.087
348.085
348.082
348.078
348.068
348.046
347.995
347.885
347.652
347.16
346.056
343.654
339.538
332.611
332.745
339.931
344.086
346.34
347.304
347.723
347.921
348.021
348.072
348.097
348.11
348.116
348.118
348.119
348.119
348.118
348.117
348.115
348.112
348.105
348.093
348.066
348.015
347.913
347.712
347.29
346.323
344.068
339.916
332.736
332.857
340.249
344.418
346.541
347.406
347.775
347.949
348.039
348.087
348.112
348.125
348.131
348.134
348.135
348.135
348.134
348.133
348.131
348.128
348.121
348.107
348.081
348.032
347.942
347.766
347.395
346.528
344.405
340.239
332.851
332.952
340.506
344.672
346.689
347.484
347.817
347.973
348.054
348.098
348.121
348.134
348.14
348.143
348.144
348.144
348.143
348.142
348.141
348.137
348.13
348.117
348.093
348.048
347.966
347.809
347.474
346.679
344.663
340.499
332.948
333.025
340.699
344.853
346.792
347.539
347.848
347.992
348.066
348.106
348.128
348.139
348.145
348.148
348.149
348.149
348.148
348.147
348.146
348.142
348.136
348.124
348.101
348.06
347.985
347.841
347.532
346.785
344.848
340.695
333.023
333.076
340.828
344.97
346.857
347.574
347.868
348.004
348.074
348.112
348.132
348.143
348.148
348.15
348.151
348.151
348.151
348.15
348.149
348.146
348.14
348.128
348.107
348.069
347.999
347.862
347.569
346.852
344.966
340.826
333.074
333.101
340.894
345.027
346.888
347.592
347.878
348.01
348.078
348.114
348.134
348.144
348.149
348.151
348.152
348.152
348.152
348.151
348.15
348.147
348.141
348.131
348.11
348.074
348.005
347.873
347.587
346.884
345.023
340.892
333.1
333.101
340.894
345.026
346.888
347.592
347.878
348.01
348.078
348.114
348.134
348.144
348.149
348.151
348.152
348.152
348.152
348.151
348.15
348.147
348.141
348.131
348.111
348.074
348.006
347.873
347.587
346.884
345.023
340.891
333.1
333.075
340.828
344.97
346.857
347.574
347.868
348.004
348.074
348.112
348.132
348.143
348.148
348.15
348.151
348.151
348.151
348.15
348.149
348.146
348.14
348.129
348.108
348.069
347.999
347.863
347.569
346.852
344.965
340.825
333.073
333.025
340.698
344.853
346.791
347.539
347.848
347.992
348.066
348.106
348.128
348.14
348.145
348.148
348.148
348.148
348.148
348.147
348.146
348.143
348.136
348.124
348.102
348.061
347.986
347.841
347.532
346.784
344.846
340.693
333.021
332.95
340.504
344.67
346.688
347.484
347.817
347.973
348.054
348.098
348.122
348.134
348.14
348.142
348.143
348.143
348.143
348.142
348.14
348.137
348.131
348.118
348.094
348.049
347.967
347.809
347.475
346.678
344.661
340.497
332.946
332.855
340.247
344.416
346.539
347.406
347.775
347.949
348.039
348.087
348.112
348.125
348.131
348.133
348.134
348.134
348.133
348.133
348.131
348.128
348.121
348.108
348.082
348.034
347.943
347.767
347.395
346.527
344.403
340.237
332.849
332.743
339.928
344.083
346.338
347.302
347.722
347.921
348.021
348.072
348.097
348.109
348.114
348.117
348.117
348.117
348.117
348.116
348.114
348.111
348.106
348.093
348.068
348.016
347.915
347.714
347.291
346.323
344.066
339.914
332.734
332.621
339.553
343.672
346.072
347.172
347.661
347.891
348
348.05
348.072
348.082
348.086
348.087
348.088
348.087
348.087
348.086
348.084
348.082
348.078
348.069
348.047
347.997
347.887
347.655
347.162
346.057
343.653
339.536
332.609
332.5
339.133
343.196
345.741
347.027
347.606
347.865
347.973
348.014
348.027
348.03
348.032
348.033
348.034
348.034
348.033
348.031
348.029
348.027
348.026
348.023
348.012
347.973
347.865
347.604
347.021
345.729
343.178
339.114
332.486
332.399
338.688
342.715
345.405
346.913
347.585
347.845
347.924
347.935
347.931
347.927
347.928
347.93
347.933
347.934
347.933
347.929
347.925
347.921
347.921
347.927
347.934
347.926
347.85
347.59
346.914
345.4
342.703
338.672
332.384
332.337
338.291
342.415
345.297
346.962
347.633
347.796
347.781
347.737
347.71
347.704
347.711
347.721
347.73
347.734
347.732
347.725
347.714
347.702
347.696
347.704
347.736
347.786
347.807
347.648
346.976
345.304
342.413
338.282
332.325
332.38
338.215
342.775
345.861
347.345
347.666
347.521
347.327
347.213
347.179
347.192
347.223
347.255
347.279
347.291
347.288
347.273
347.245
347.211
347.179
347.169
347.21
347.333
347.538
347.691
347.373
345.884
342.789
338.22
332.378
332.838
339.271
344.665
347.416
347.788
347.126
346.413
345.994
345.85
345.867
345.952
346.048
346.13
346.187
346.214
346.212
346.179
346.118
346.032
345.934
345.851
345.841
345.997
346.432
347.161
347.832
347.459
344.697
339.293
332.854
335.479
342.759
349.089
348.85
346.779
344.816
343.611
343.085
342.978
343.076
343.246
343.417
343.558
343.655
343.703
343.7
343.647
343.545
343.4
343.225
343.056
342.963
343.081
343.626
344.854
346.838
348.918
349.151
342.796
335.499
331.306
359.103
351.942
346.367
342.17
339.862
338.842
338.528
338.547
338.696
338.877
339.043
339.176
339.266
339.311
339.309
339.26
339.165
339.028
338.858
338.676
338.528
338.517
338.847
339.895
342.238
346.464
352.05
359.222
331.312
442.855
361.469
346.423
337.306
333.686
332.254
331.697
331.505
331.472
331.496
331.535
331.575
331.609
331.633
331.644
331.643
331.628
331.601
331.564
331.521
331.479
331.454
331.489
331.69
332.267
333.737
337.414
346.587
361.673
443.221
437.676
358.873
344.642
336.101
332.788
331.438
330.859
330.613
330.522
330.494
330.491
330.499
330.511
330.521
330.528
330.531
330.53
330.526
330.522
330.52
330.528
330.558
330.646
330.879
331.426
332.711
335.922
344.353
358.497
437.039
331.09
357.144
350.308
345.011
341.053
338.829
337.766
337.351
337.259
337.311
337.412
337.519
337.61
337.675
337.711
337.715
337.687
337.63
337.547
337.448
337.351
337.299
337.38
337.77
338.788
340.951
344.853
350.131
356.951
331.099
335.091
342.065
347.96
347.678
345.684
343.735
342.443
341.781
341.541
341.531
341.622
341.739
341.847
341.927
341.97
341.975
341.941
341.871
341.773
341.662
341.573
341.577
341.799
342.431
343.684