/*--------------------------------*- C++ -*----------------------------------*\
| =========                 |                                                 |
| \\      /  F ield         | OpenFOAM: The Open Source CFD Toolbox           |
|  \\    /   O peration     | Version:  2312                                  |
|   \\  /    A nd           | Website:  www.openfoam.com                      |
|    \\/     M anipulation  |                                                 |
\*---------------------------------------------------------------------------*/
FoamFile
{
    version     2.0;
    format      ascii;
    arch        "LSB;label=32;scalar=64";
    class       volVectorField;
    location    "500";
    object      U;
}
// * * * * * * * * * * * * * * * * * * * * * * * * * * * * * * * * * * * * * //

dimensions      [0 1 -1 0 0 0 0];

internalField   nonuniform List<vector> 
27000
(
(-5.30607e-05 9.48389e-05 0.107664)
(-0.000195905 0.000210543 0.0764638)
(-9.42067e-05 0.000219914 0.0818454)
(-6.27116e-05 0.000198246 0.0834302)
(-2.86699e-05 0.000192968 0.0852832)
(-8.8285e-06 0.000193839 0.0867286)
(5.17961e-06 0.000196838 0.087805)
(1.47212e-05 0.000200125 0.088665)
(2.02694e-05 0.000203431 0.0893831)
(2.22048e-05 0.0002066 0.0899574)
(2.13089e-05 0.000209524 0.090407)
(1.83229e-05 0.000212067 0.0907526)
(1.38875e-05 0.000214036 0.0910043)
(8.50202e-06 0.000215365 0.0911682)
(2.57834e-06 0.000216018 0.091249)
(-3.50872e-06 0.000215993 0.0912494)
(-9.40604e-06 0.000215283 0.0911692)
(-1.47294e-05 0.000213906 0.091006)
(-1.90698e-05 0.000211887 0.0907551)
(-2.19036e-05 0.000209308 0.0904104)
(-2.25947e-05 0.000206362 0.0899618)
(-2.03688e-05 0.000203199 0.0893884)
(-1.44519e-05 0.000199951 0.0886711)
(-4.48193e-06 0.000196789 0.0878114)
(1.00574e-05 0.00019408 0.0867349)
(3.02186e-05 0.000193481 0.0852888)
(6.46411e-05 0.000199031 0.0834341)
(9.63102e-05 0.000221333 0.0818465)
(0.000197778 0.000211784 0.0764605)
(5.47335e-05 9.62629e-05 0.107657)
(0.000294025 -0.000131616 0.0627548)
(0.000130663 -5.63961e-05 0.0838265)
(0.000105089 0.000144127 0.0918357)
(6.93405e-05 0.000198788 0.0945449)
(6.37315e-05 0.000225352 0.095827)
(6.55666e-05 0.000243237 0.09669)
(6.65792e-05 0.000257896 0.0973046)
(6.58507e-05 0.000270287 0.0977579)
(6.28767e-05 0.00028043 0.0981033)
(5.7443e-05 0.000288559 0.0983662)
(4.97314e-05 0.000294941 0.0985635)
(4.02318e-05 0.000299787 0.0987094)
(2.94221e-05 0.000303277 0.098813)
(1.77338e-05 0.000305518 0.0988798)
(5.54592e-06 0.000306599 0.0989127)
(-6.79469e-06 0.000306553 0.0989134)
(-1.89414e-05 0.000305388 0.0988817)
(-3.05531e-05 0.000303058 0.0988163)
(-4.12381e-05 0.000299488 0.098714)
(-5.05804e-05 0.000294568 0.0985695)
(-5.80822e-05 0.000288133 0.0983734)
(-6.32824e-05 0.000279992 0.0981113)
(-6.6018e-05 0.000269869 0.097766)
(-6.64786e-05 0.000257631 0.0973117)
(-6.52191e-05 0.000243249 0.0966948)
(-6.31054e-05 0.000225742 0.0958282)
(-6.86898e-05 0.000199506 0.0945414)
(-0.000104543 0.000144935 0.0918269)
(-0.000130041 -5.52193e-05 0.0838148)
(-0.000295594 -0.000132823 0.0627514)
(9.00336e-05 0.000146065 0.0806676)
(0.000120628 0.000161948 0.0901187)
(0.000163651 0.000209649 0.0970119)
(0.000154287 0.000238695 0.0986451)
(0.000137241 0.000258647 0.0991185)
(0.000123424 0.000273688 0.0993497)
(0.000111391 0.00028617 0.0995147)
(0.000100183 0.000296783 0.0996405)
(8.90292e-05 0.000305673 0.0997373)
(7.73209e-05 0.000312812 0.0998113)
(6.47322e-05 0.000318339 0.099867)
(5.12298e-05 0.000322444 0.0999082)
(3.69655e-05 0.000325318 0.0999375)
(2.21436e-05 0.000327124 0.0999566)
(6.98937e-06 0.000327968 0.0999664)
(-8.26156e-06 0.000327912 0.0999671)
(-2.3377e-05 0.000326949 0.0999589)
(-3.81189e-05 0.000325034 0.0999412)
(-5.22723e-05 0.000322057 0.0999133)
(-6.5628e-05 0.00031786 0.0998732)
(-7.80567e-05 0.000312277 0.0998181)
(-8.9604e-05 0.000305103 0.0997441)
(-0.000100594 0.000296275 0.0996464)
(-0.00011171 0.000285764 0.0995184)
(-0.000123624 0.000273519 0.0993501)
(-0.000137405 0.000258735 0.0991148)
(-0.000154474 0.000238968 0.0986371)
(-0.000163959 0.000209998 0.0970011)
(-0.000121259 0.000161839 0.09011)
(-9.10395e-05 0.000145027 0.0806659)
(0.000136248 6.67142e-05 0.0839904)
(0.000150045 0.000146182 0.0940961)
(0.00018209 0.000216303 0.0983765)
(0.000177421 0.000238778 0.0994511)
(0.000164394 0.000253324 0.0997525)
(0.000148445 0.000264718 0.0998622)
(0.000132259 0.0002746 0.0999248)
(0.000116615 0.000283449 0.0999717)
(0.000101511 0.000291177 0.100009)
(8.65678e-05 0.000297643 0.100037)
(7.14602e-05 0.000302759 0.100059)
(5.60099e-05 0.000306593 0.100075)
(4.0173e-05 0.000309274 0.100086)
(2.4008e-05 0.000310948 0.100094)
(7.63714e-06 0.000311719 0.100098)
(-8.79576e-06 0.000311654 0.100098)
(-2.51317e-05 0.00031075 0.100096)
(-4.12275e-05 0.000308956 0.10009)
(-5.6967e-05 0.000306158 0.100079)
(-7.2304e-05 0.000302239 0.100064)
(-8.72925e-05 0.000297056 0.100042)
(-0.000102121 0.000290591 0.100013)
(-0.000117158 0.000282895 0.0999746)
(-0.000132744 0.000274169 0.0999253)
(-0.000148919 0.000264452 0.0998596)
(-0.000164882 0.000253229 0.0997467)
(-0.000177958 0.000238801 0.0994431)
(-0.00018273 0.000216226 0.0983682)
(-0.000150841 0.000145724 0.094091)
(-0.000137534 6.51945e-05 0.0839905)
(0.000134259 9.65004e-05 0.0864996)
(0.000170935 0.00015673 0.0960404)
(0.000200821 0.000210615 0.0990614)
(0.000193599 0.000229942 0.0997275)
(0.000180123 0.000241497 0.0999246)
(0.000163478 0.000250317 0.0999938)
(0.000145667 0.000257982 0.100025)
(0.000127886 0.000265014 0.100044)
(0.000110513 0.000271379 0.100059)
(9.34856e-05 0.000276886 0.100071)
(7.65983e-05 0.000281384 0.10008)
(5.96822e-05 0.000284832 0.100087)
(4.26439e-05 0.000287276 0.100091)
(2.54566e-05 0.000288806 0.100095)
(8.16026e-06 0.000289512 0.100096)
(-9.16438e-06 0.000289437 0.100097)
(-2.64308e-05 0.000288593 0.100096)
(-4.35619e-05 0.000286927 0.100094)
(-6.05264e-05 0.000284365 0.10009)
(-7.73556e-05 0.000280823 0.100084)
(-9.41605e-05 0.00027627 0.100074)
(-0.000111127 0.000270749 0.100061)
(-0.000128455 0.00026443 0.100045)
(-0.00014623 0.000257488 0.100023)
(-0.000164052 0.000249941 0.0999902)
(-0.000180703 0.000241244 0.0999192)
(-0.000194187 0.000229733 0.0997214)
(-0.000201407 0.000210312 0.0990565)
(-0.000171609 0.00015606 0.096039)
(-0.000135117 9.51528e-05 0.0865015)
(0.000142887 9.60356e-05 0.0883096)
(0.000188672 0.000160526 0.0971635)
(0.000216084 0.000202613 0.0994281)
(0.000207011 0.000216691 0.0998769)
(0.000192278 0.000225451 0.0999994)
(0.000174665 0.000232184 0.100039)
(0.000155788 0.000238149 0.100052)
(0.000136709 0.000243723 0.100058)
(0.000117881 0.000248888 0.100062)
(9.93792e-05 0.000253472 0.100065)
(8.11275e-05 0.00025732 0.100067)
(6.30101e-05 0.000260342 0.10007)
(4.49194e-05 0.000262526 0.100071)
(2.68058e-05 0.00026391 0.100072)
(8.6588e-06 0.000264544 0.100073)
(-9.49699e-06 0.000264467 0.100074)
(-2.7621e-05 0.000263678 0.100074)
(-4.56953e-05 0.000262152 0.100073)
(-6.37306e-05 0.000259843 0.100072)
(-8.17933e-05 0.000256725 0.10007)
(-9.99967e-05 0.000252816 0.100067)
(-0.000118462 0.000248218 0.100063)
(-0.00013728 0.000243082 0.100058)
(-0.00015636 0.000237573 0.100051)
(-0.000175241 0.000231696 0.100036)
(-0.000192845 0.000225034 0.0999954)
(-0.000207542 0.000216292 0.0998733)
(-0.000216553 0.000202123 0.0994263)
(-0.000189137 0.000159788 0.0971647)
(-0.000143455 9.49007e-05 0.0883121)
(0.000150973 9.41377e-05 0.0896691)
(0.000204637 0.000155046 0.0978706)
(0.000229177 0.00018928 0.0996431)
(0.000218559 0.000200131 0.0999661)
(0.000202557 0.000206729 0.100042)
(0.000183977 0.000211851 0.100059)
(0.00016423 0.000216472 0.10006)
(0.000144203 0.000220882 0.100057)
(0.000124314 0.000225045 0.100054)
(0.000104698 0.000228813 0.100051)
(8.53448e-05 0.000232044 0.10005)
(6.61836e-05 0.000234634 0.10005)
(4.7137e-05 0.000236539 0.10005)
(2.81361e-05 0.000237758 0.10005)
(9.15131e-06 0.000238318 0.10005)
(-9.82491e-06 0.000238234 0.10005)
(-2.87968e-05 0.000237514 0.100051)
(-4.77703e-05 0.000236143 0.100051)
(-6.67872e-05 0.000234109 0.100052)
(-8.59174e-05 0.000231417 0.100052)
(-0.000105247 0.000228124 0.100053)
(-0.000124854 0.00022433 0.100054)
(-0.000144741 0.000220184 0.100056)
(-0.000164774 0.000215819 0.100058)
(-0.000184516 0.000211252 0.100057)
(-0.000203067 0.000206177 0.10004)
(-0.000219004 0.000199589 0.0999646)
(-0.000229536 0.000188686 0.0996433)
(-0.000204939 0.000154342 0.0978728)
(-0.000151291 9.32976e-05 0.0896714)
(0.000158652 8.9217e-05 0.0907028)
(0.000218371 0.000144874 0.0983461)
(0.000240247 0.000172516 0.0997799)
(0.000228377 0.000181076 0.100022)
(0.000211312 0.000186157 0.100068)
(0.000191904 0.000190091 0.10007)
(0.000171439 0.000193672 0.100061)
(0.000150677 0.000197135 0.100052)
(0.000129977 0.000200449 0.100044)
(0.000109485 0.000203499 0.100039)
(8.9229e-05 0.000206154 0.100036)
(6.91745e-05 0.000208319 0.100034)
(4.92572e-05 0.000209934 0.100033)
(2.94245e-05 0.000210978 0.100033)
(9.63069e-06 0.000211453 0.100033)
(-1.01499e-05 0.000211369 0.100033)
(-2.99357e-05 0.000210724 0.100033)
(-4.97594e-05 0.000209527 0.100034)
(-6.96635e-05 0.000207777 0.100035)
(-8.97105e-05 0.000205509 0.100037)
(-0.000109966 0.000202782 0.10004)
(-0.000130462 0.000199703 0.100045)
(-0.000151172 0.000196392 0.100051)
(-0.000171939 0.000192955 0.10006)
(-0.000192389 0.000189414 0.100069)
(-0.000211759 0.000185513 0.100067)
(-0.000228755 0.00018045 0.100021)
(-0.000240528 0.000171884 0.0997809)
(-0.000218577 0.000144245 0.0983482)
(-0.000158829 8.86211e-05 0.0907043)
(0.00016615 8.17789e-05 0.0915092)
(0.000230215 0.000131112 0.0986821)
(0.000249593 0.000153401 0.0998733)
(0.00023661 0.000160193 0.100058)
(0.000218635 0.000164172 0.100084)
(0.000198546 0.00016721 0.100075)
(0.000177511 0.000169983 0.100061)
(0.000156177 0.000172679 0.100048)
(0.000134854 0.000175285 0.100037)
(0.00011368 0.000177708 0.10003)
(9.26949e-05 0.000179848 0.100026)
(7.18844e-05 0.000181613 0.100023)
(5.12094e-05 0.000182945 0.100022)
(3.06189e-05 0.000183811 0.100021)
(1.00766e-05 0.000184201 0.100021)
(-1.04521e-05 0.000184114 0.100022)
(-3.09962e-05 0.000183557 0.100022)
(-5.15865e-05 0.000182534 0.100023)
(-7.22683e-05 0.00018107 0.100024)
(-9.30887e-05 0.000179197 0.100027)
(-0.000114089 0.000176986 0.100031)
(-0.000135282 0.000174524 0.100037)
(-0.000156621 0.000171912 0.100047)
(-0.00017796 0.000169232 0.10006)
(-0.000198982 0.000166487 0.100075)
(-0.000219031 0.000163481 0.100083)
(-0.00023694 0.000159531 0.100058)
(-0.000249839 0.000152773 0.0998743)
(-0.000230377 0.000130559 0.0986834)
(-0.00016626 8.13543e-05 0.0915098)
(0.000172951 7.22109e-05 0.0921395)
(0.000240266 0.00011464 0.0989269)
(0.000257406 0.000132454 0.0999403)
(0.000243409 0.000137845 0.100083)
(0.000224639 0.000140978 0.100094)
(0.000203965 0.000143339 0.100078)
(0.000182482 0.000145485 0.10006)
(0.000160715 0.00014757 0.100044)
(0.000138923 0.000149592 0.100033)
(0.000117226 0.000151488 0.100025)
(9.56654e-05 0.000153175 0.10002)
(7.424e-05 0.00015458 0.100017)
(5.29216e-05 0.000155649 0.100016)
(3.16781e-05 0.000156344 0.100015)
(1.04728e-05 0.000156653 0.100015)
(-1.07205e-05 0.000156568 0.100015)
(-3.19308e-05 0.000156096 0.100016)
(-5.31885e-05 0.000155249 0.100017)
(-7.4525e-05 0.000154049 0.100018)
(-9.5976e-05 0.00015254 0.100021)
(-0.000117566 0.000150778 0.100025)
(-0.000139293 0.000148841 0.100033)
(-0.000161107 0.000146805 0.100044)
(-0.000182884 0.000144728 0.10006)
(-0.000204356 0.000142606 0.100078)
(-0.000224995 0.000140277 0.100094)
(-0.000243709 0.000137183 0.100083)
(-0.000257632 0.000131849 0.0999408)
(-0.000240413 0.000114147 0.0989272)
(-0.000173035 7.18862e-05 0.0921392)
(0.00017879 6.10164e-05 0.0926208)
(0.000248546 9.61471e-05 0.0991054)
(0.000263769 0.000110092 0.0999889)
(0.000248871 0.000114309 0.100101)
(0.000229417 0.000116752 0.1001)
(0.000208267 0.000118591 0.10008)
(0.000186427 0.000120247 0.100059)
(0.000164333 0.000121845 0.100042)
(0.000142195 0.000123393 0.10003)
(0.000120106 0.000124847 0.100022)
(9.81052e-05 0.000126147 0.100017)
(7.61941e-05 0.000127237 0.100015)
(5.43572e-05 0.000128067 0.100014)
(3.257e-05 0.000128608 0.100013)
(1.08112e-05 0.000128841 0.100013)
(-1.09439e-05 0.000128763 0.100013)
(-3.27141e-05 0.000128374 0.100013)
(-5.45217e-05 0.000127691 0.100014)
(-7.63895e-05 0.000126736 0.100015)
(-9.8338e-05 0.000125547 0.100018)
(-0.000120379 0.000124173 0.100022)
(-0.000142506 0.000122674 0.10003)
(-0.000164675 0.000121108 0.100042)
(-0.000186783 0.000119513 0.100059)
(-0.000208619 0.000117876 0.10008)
(-0.000229742 0.000116066 0.1001)
(-0.000249148 0.000113666 0.100101)
(-0.000263985 0.000109512 0.0999888)
(-0.000248686 9.56882e-05 0.0991048)
(-0.000178866 6.07396e-05 0.0926199)
(0.000183547 4.85705e-05 0.0929778)
(0.000255098 7.61421e-05 0.099233)
(0.000268767 8.66499e-05 0.100024)
(0.000253108 8.98438e-05 0.100113)
(0.000233088 9.17026e-05 0.100104)
(0.000211549 9.31066e-05 0.100081)
(0.000189432 9.43601e-05 0.100058)
(0.000167099 9.55617e-05 0.100041)
(0.00014471 9.67189e-05 0.100029)
(0.000122339 9.78051e-05 0.100021)
(0.000100013 9.87771e-05 0.100017)
(7.77352e-05 9.95923e-05 0.100014)
(5.54969e-05 0.000100215 0.100013)
(3.32853e-05 0.000100618 0.100013)
(1.10848e-05 0.000100787 0.100013)
(-1.11159e-05 0.000100715 0.100013)
(-3.33308e-05 0.000100407 0.100013)
(-5.55705e-05 9.98744e-05 0.100014)
(-7.78476e-05 9.91387e-05 0.100015)
(-0.000100172 9.82298e-05 0.100017)
(-0.000122548 9.7188e-05 0.100021)
(-0.000144965 9.60561e-05 0.100029)
(-0.000167389 9.48758e-05 0.100041)
(-0.000189744 9.36708e-05 0.100058)
(-0.000211862 9.24279e-05 0.10008)
(-0.00023338 9.10484e-05 0.100104)
(-0.000253362 8.92255e-05 0.100112)
(-0.000268968 8.60919e-05 0.100023)
(-0.00025523 7.56982e-05 0.0992316)
(-0.00018362 4.83066e-05 0.0929764)
(0.000187155 3.51981e-05 0.0932299)
(0.000259964 5.50324e-05 0.0993205)
(0.000272455 6.23996e-05 0.100047)
(0.000256206 6.46673e-05 0.100121)
(0.000235748 6.60069e-05 0.100107)
(0.000213915 6.70279e-05 0.100081)
(0.000191592 6.79389e-05 0.100058)
(0.000169088 6.88044e-05 0.10004)
(0.000146528 6.96332e-05 0.100028)
(0.000123962 7.04069e-05 0.100021)
(0.000101409 7.1098e-05 0.100017)
(7.8871e-05 7.16759e-05 0.100015)
(5.63436e-05 7.21162e-05 0.100014)
(3.38201e-05 7.23981e-05 0.100014)
(1.12956e-05 7.2511e-05 0.100014)
(-1.12361e-05 7.24497e-05 0.100014)
(-3.37777e-05 7.22168e-05 0.100014)
(-5.63337e-05 7.18227e-05 0.100015)
(-7.89065e-05 7.12826e-05 0.100016)
(-0.000101498 7.06208e-05 0.100018)
(-0.000124107 6.98642e-05 0.100022)
(-0.000146725 6.90444e-05 0.100029)
(-0.000169327 6.81879e-05 0.10004)
(-0.000191857 6.73104e-05 0.100058)
(-0.000214186 6.64012e-05 0.100081)
(-0.000236005 6.5393e-05 0.100107)
(-0.00025643 6.40792e-05 0.10012)
(-0.000272634 6.18592e-05 0.100046)
(-0.00026008 5.45913e-05 0.0993185)
(-0.000187222 3.49283e-05 0.0932282)
(0.000189572 2.11927e-05 0.093391)
(0.000263178 3.31697e-05 0.0993753)
(0.000274878 3.7589e-05 0.100062)
(0.000258227 3.89933e-05 0.100127)
(0.000237474 3.98498e-05 0.100109)
(0.000215441 4.05179e-05 0.100082)
(0.000192982 4.11177e-05 0.100058)
(0.00017037 4.16855e-05 0.100041)
(0.000147702 4.22252e-05 0.100029)
(0.000125016 4.27255e-05 0.100022)
(0.000102321 4.3169e-05 0.100019)
(7.9618e-05 4.35384e-05 0.100017)
(5.69046e-05 4.38162e-05 0.100016)
(3.41801e-05 4.39915e-05 0.100016)
(1.14434e-05 4.40556e-05 0.100016)
(-1.13034e-05 4.4006e-05 0.100016)
(-3.40586e-05 4.38448e-05 0.100016)
(-5.68192e-05 4.35778e-05 0.100017)
(-7.95817e-05 4.32165e-05 0.100017)
(-0.000102343 4.27749e-05 0.100019)
(-0.000125099 4.22716e-05 0.100023)
(-0.000147841 4.17249e-05 0.100029)
(-0.000170554 4.11523e-05 0.100041)
(-0.000193198 4.05633e-05 0.100058)
(-0.000215667 3.99529e-05 0.100081)
(-0.00023769 3.92843e-05 0.100109)
(-0.000258416 3.84388e-05 0.100126)
(-0.000275026 3.70658e-05 0.100061)
(-0.00026327 3.27274e-05 0.099373)
(-0.000189627 2.09093e-05 0.093389)
(0.000190771 6.82427e-06 0.0934697)
(0.000264763 1.08692e-05 0.0994022)
(0.000276067 1.24466e-05 0.10007)
(0.000259214 1.30234e-05 0.10013)
(0.000238314 1.34153e-05 0.100111)
(0.000216182 1.3744e-05 0.100083)
(0.000193657 1.40478e-05 0.100059)
(0.000170992 1.43367e-05 0.100042)
(0.000148275 1.46086e-05 0.100031)
(0.000125534 1.48571e-05 0.100024)
(0.000102773 1.50739e-05 0.100021)
(7.99919e-05 1.52502e-05 0.100019)
(5.71905e-05 1.53797e-05 0.100018)
(3.43692e-05 1.54561e-05 0.100018)
(1.15311e-05 1.54768e-05 0.100018)
(-1.13197e-05 1.54404e-05 0.100019)
(-3.41775e-05 1.53477e-05 0.100019)
(-5.70361e-05 1.5202e-05 0.100019)
(-7.98892e-05 1.50076e-05 0.100019)
(-0.000102731 1.47717e-05 0.100021)
(-0.000125555 1.45017e-05 0.100024)
(-0.000148356 1.42075e-05 0.100031)
(-0.000171121 1.38968e-05 0.100042)
(-0.000193819 1.35769e-05 0.100059)
(-0.000216358 1.32493e-05 0.100083)
(-0.000238483 1.29049e-05 0.10011)
(-0.00025936 1.25076e-05 0.100129)
(-0.000276178 1.19445e-05 0.100069)
(-0.000264825 1.04281e-05 0.0993998)
(-0.000190809 6.52708e-06 0.0934677)
(0.00019074 -7.65902e-06 0.0934703)
(0.000264733 -1.15754e-05 0.0994034)
(0.000276039 -1.28075e-05 0.100072)
(0.000259189 -1.30477e-05 0.100132)
(0.000238291 -1.3115e-05 0.100113)
(0.000216162 -1.31234e-05 0.100085)
(0.00019364 -1.31124e-05 0.100061)
(0.00017098 -1.30985e-05 0.100044)
(0.000148268 -1.30887e-05 0.100033)
(0.000125532 -1.30859e-05 0.100026)
(0.000102776 -1.30907e-05 0.100023)
(8.00014e-05 -1.31015e-05 0.100021)
(5.7206e-05 -1.31175e-05 0.100021)
(3.43908e-05 -1.31365e-05 0.100021)
(1.15587e-05 -1.31577e-05 0.100021)
(-1.12861e-05 -1.31805e-05 0.100021)
(-3.4138e-05 -1.32047e-05 0.100021)
(-5.6991e-05 -1.32312e-05 0.100021)
(-7.98386e-05 -1.32611e-05 0.100021)
(-0.000102675 -1.3296e-05 0.100023)
(-0.000125495 -1.3337e-05 0.100026)
(-0.000148291 -1.33849e-05 0.100033)
(-0.000171053 -1.34382e-05 0.100044)
(-0.000193748 -1.34931e-05 0.100061)
(-0.000216285 -1.3541e-05 0.100085)
(-0.00023841 -1.35634e-05 0.100112)
(-0.000259288 -1.35174e-05 0.100131)
(-0.000276107 -1.3281e-05 0.10007)
(-0.000264761 -1.20074e-05 0.0994012)
(-0.000190757 -7.96433e-06 0.0934684)
(0.000189479 -2.2023e-05 0.0933928)
(0.000263088 -3.38765e-05 0.0993788)
(0.000274793 -3.79538e-05 0.100067)
(0.000258151 -3.90245e-05 0.100132)
(0.000237405 -3.95607e-05 0.100114)
(0.000215381 -3.99129e-05 0.100087)
(0.000192933 -4.02027e-05 0.100064)
(0.000170333 -4.04723e-05 0.100046)
(0.00014768 -4.07339e-05 0.100035)
(0.00012501 -4.09864e-05 0.100029)
(0.000102332 -4.12207e-05 0.100025)
(7.96458e-05 -4.14265e-05 0.100024)
(5.69504e-05 -4.15924e-05 0.100023)
(3.42439e-05 -4.1711e-05 0.100023)
(1.15254e-05 -4.17758e-05 0.100023)
(-1.12035e-05 -4.17848e-05 0.100023)
(-3.39412e-05 -4.1739e-05 0.100023)
(-5.66849e-05 -4.16424e-05 0.100023)
(-7.94316e-05 -4.15025e-05 0.100024)
(-0.000102178 -4.13286e-05 0.100025)
(-0.000124919 -4.1132e-05 0.100029)
(-0.00014765 -4.0923e-05 0.100035)
(-0.000170353 -4.07086e-05 0.100047)
(-0.000192988 -4.04886e-05 0.100064)
(-0.000215453 -4.02473e-05 0.100087)
(-0.000237474 -3.99394e-05 0.100114)
(-0.000258201 -3.94391e-05 0.100131)
(-0.000274817 -3.83877e-05 0.100066)
(-0.00026308 -3.4287e-05 0.099377)
(-0.000189473 -2.2326e-05 0.0933911)
(0.000187 -3.60187e-05 0.0932329)
(0.000259813 -5.57394e-05 0.0993263)
(0.000272312 -6.27707e-05 0.100055)
(0.000256076 -6.47121e-05 0.100129)
(0.000235632 -6.57393e-05 0.100116)
(0.000213814 -6.64536e-05 0.10009)
(0.000191508 -6.7064e-05 0.100067)
(0.000169026 -6.76398e-05 0.10005)
(0.000146489 -6.81985e-05 0.100038)
(0.00012395 -6.87307e-05 0.100031)
(0.000101424 -6.92176e-05 0.100028)
(7.89151e-05 -6.96366e-05 0.100026)
(5.64171e-05 -6.99676e-05 0.100026)
(3.39235e-05 -7.01949e-05 0.100026)
(1.14291e-05 -7.03083e-05 0.100026)
(-1.10728e-05 -7.03045e-05 0.100026)
(-3.35859e-05 -7.01844e-05 0.100026)
(-5.61142e-05 -6.99563e-05 0.100026)
(-7.86611e-05 -6.96328e-05 0.100026)
(-0.000101228 -6.92315e-05 0.100028)
(-0.000123815 -6.87745e-05 0.100032)
(-0.000146413 -6.82825e-05 0.100038)
(-0.000168998 -6.7774e-05 0.10005)
(-0.000191515 -6.72536e-05 0.100067)
(-0.000213837 -6.67013e-05 0.10009)
(-0.000235654 -6.60411e-05 0.100116)
(-0.000256081 -6.5061e-05 0.100129)
(-0.000272292 -6.31514e-05 0.100054)
(-0.000259769 -5.61127e-05 0.0993249)
(-0.00018697 -3.63055e-05 0.0932315)
(0.00018333 -4.93744e-05 0.092982)
(0.000254885 -7.6846e-05 0.0992411)
(0.000268564 -8.70286e-05 0.100034)
(0.000252924 -8.99066e-05 0.100124)
(0.000232924 -9.14659e-05 0.100116)
(0.000211407 -9.2577e-05 0.100092)
(0.000189315 -9.35432e-05 0.10007)
(0.00016701 -9.4468e-05 0.100053)
(0.000144655 -9.53659e-05 0.100042)
(0.000122319 -9.62198e-05 0.100035)
(0.000100031 -9.69959e-05 0.100031)
(7.77921e-05 -9.76578e-05 0.100029)
(5.55944e-05 -9.81759e-05 0.100029)
(3.34244e-05 -9.85262e-05 0.100029)
(1.12656e-05 -9.86967e-05 0.100029)
(-1.08945e-05 -9.86804e-05 0.100029)
(-3.30693e-05 -9.84814e-05 0.100029)
(-5.52721e-05 -9.8109e-05 0.100029)
(-7.75139e-05 -9.75809e-05 0.10003)
(-9.98062e-05 -9.69242e-05 0.100031)
(-0.000122152 -9.61691e-05 0.100035)
(-0.000144542 -9.5353e-05 0.100042)
(-0.000166945 -9.45051e-05 0.100053)
(-0.000189282 -9.36408e-05 0.10007)
(-0.000211389 -9.27369e-05 0.100093)
(-0.000232903 -9.16872e-05 0.100116)
(-0.000252886 -9.018e-05 0.100124)
(-0.000268502 -8.73408e-05 0.100034)
(-0.000254807 -7.7162e-05 0.0992404)
(-0.000183278 -4.96262e-05 0.092981)
(0.000178515 -6.17935e-05 0.0926261)
(0.00024827 -9.68422e-05 0.0991156)
(0.000263507 -0.000110476 0.100001)
(0.000248635 -0.000114394 0.100114)
(0.000229206 -0.000116554 0.100114)
(0.000208084 -0.000118119 0.100095)
(0.000186275 -0.000119505 0.100074)
(0.000164218 -0.000120841 0.100058)
(0.00014212 -0.000122144 0.100047)
(0.000120075 -0.000123377 0.100039)
(9.81211e-05 -0.000124492 0.100036)
(7.62591e-05 -0.000125436 0.100034)
(5.44735e-05 -0.000126168 0.100033)
(3.27393e-05 -0.00012666 0.100033)
(1.10329e-05 -0.000126896 0.100033)
(-1.06696e-05 -0.00012687 0.100033)
(-3.23909e-05 -0.000126585 0.100033)
(-5.41515e-05 -0.000126053 0.100033)
(-7.59767e-05 -0.000125297 0.100034)
(-9.78856e-05 -0.000124345 0.100036)
(-0.000119891 -0.000123245 0.100039)
(-0.000141987 -0.000122045 0.100046)
(-0.000164128 -0.000120793 0.100058)
(-0.000186215 -0.000119518 0.100074)
(-0.000208037 -0.000118198 0.100095)
(-0.000229153 -0.000116695 0.100115)
(-0.00024856 -0.000114586 0.100115)
(-0.000263407 -0.000110705 0.100002)
(-0.000248162 -9.70764e-05 0.0991159)
(-0.000178443 -6.19819e-05 0.0926257)
(0.000172624 -7.29481e-05 0.0921459)
(0.000239931 -0.000115316 0.0989391)
(0.000257086 -0.00013284 0.0999551)
(0.000243119 -0.000137953 0.100099)
(0.000224382 -0.000140826 0.10011)
(0.000203741 -0.000142934 0.100095)
(0.000182297 -0.000144831 0.100078)
(0.000160572 -0.000146673 0.100063)
(0.000138827 -0.000148465 0.100052)
(0.00011718 -0.000150155 0.100045)
(9.56744e-05 -0.000151668 0.100042)
(7.43074e-05 -0.000152939 0.10004)
(5.30511e-05 -0.000153915 0.100039)
(3.18706e-05 -0.000154567 0.100039)
(1.07298e-05 -0.000154878 0.100039)
(-1.0402e-05 -0.000154844 0.100039)
(-3.15524e-05 -0.000154468 0.100039)
(-5.27554e-05 -0.000153763 0.100039)
(-7.40418e-05 -0.000152747 0.10004)
(-9.54482e-05 -0.000151462 0.100042)
(-0.000116999 -0.000149956 0.100045)
(-0.00013869 -0.000148298 0.100052)
(-0.000160475 -0.000146556 0.100062)
(-0.000182227 -0.000144777 0.100077)
(-0.000203682 -0.000142946 0.100095)
(-0.000224312 -0.000140896 0.10011)
(-0.000243024 -0.000138067 0.1001)
(-0.00025696 -0.000132975 0.0999565)
(-0.000239802 -0.000115442 0.0989404)
(-0.000172545 -7.30297e-05 0.0921463)
(0.000165781 -8.24601e-05 0.0915168)
(0.000229829 -0.000131751 0.098696)
(0.000249221 -0.000153783 0.09989)
(0.000236274 -0.000160327 0.100076)
(0.000218337 -0.000164074 0.100102)
(0.000198286 -0.000166885 0.100094)
(0.000177291 -0.00016943 0.100081)
(0.000156005 -0.000171902 0.100068)
(0.000134733 -0.000174294 0.100059)
(0.000113614 -0.000176526 0.100054)
(9.26916e-05 -0.000178507 0.100051)
(7.19488e-05 -0.000180149 0.100049)
(5.13445e-05 -0.000181399 0.100049)
(3.08287e-05 -0.000182226 0.100049)
(1.03603e-05 -0.00018262 0.100049)
(-1.00951e-05 -0.000182578 0.100049)
(-3.05709e-05 -0.000182109 0.100049)
(-5.10984e-05 -0.000181217 0.100049)
(-7.17241e-05 -0.000179921 0.10005)
(-9.24951e-05 -0.000178254 0.100051)
(-0.000113452 -0.00017628 0.100053)
(-0.00013461 -0.000174076 0.100059)
(-0.000155917 -0.000171737 0.100067)
(-0.000177231 -0.000169331 0.100079)
(-0.000198233 -0.000166852 0.100093)
(-0.000218273 -0.000164095 0.100101)
(-0.000236177 -0.000160376 0.100076)
(-0.000249088 -0.000153829 0.0998917)
(-0.000229702 -0.000131745 0.0986983)
(-0.000165723 -8.23777e-05 0.0915181)
(0.000158259 -8.98179e-05 0.0907117)
(0.000217951 -0.000145461 0.0983612)
(0.000239832 -0.000172892 0.0997976)
(0.000228004 -0.000181241 0.10004)
(0.000210977 -0.000186124 0.100087)
(0.000191607 -0.000189854 0.10009)
(0.000171187 -0.00019323 0.100083)
(0.000150471 -0.000196485 0.100075)
(0.000129825 -0.000199604 0.100069)
(0.000109395 -0.000202478 0.100065)
(8.92075e-05 -0.00020499 0.100063)
(6.92283e-05 -0.000207046 0.100063)
(4.93931e-05 -0.00020859 0.100063)
(2.96443e-05 -0.000209601 0.100063)
(9.93574e-06 -0.000210081 0.100063)
(-9.76258e-06 -0.000210037 0.100063)
(-2.94712e-05 -0.000209472 0.100063)
(-4.92243e-05 -0.000208389 0.100063)
(-6.90657e-05 -0.000206792 0.100063)
(-8.90599e-05 -0.000204709 0.100064)
(-0.00010927 -0.000202198 0.100065)
(-0.000129729 -0.000199357 0.100068)
(-0.000150409 -0.000196294 0.100073)
(-0.000171151 -0.000193111 0.10008)
(-0.000191585 -0.000189808 0.100088)
(-0.00021094 -0.00018613 0.100085)
(-0.000227937 -0.00018126 0.10004)
(-0.000239723 -0.000172865 0.0997992)
(-0.000217862 -0.00014531 0.0983642)
(-0.000158275 -8.94998e-05 0.090714)
(0.000150587 -9.46404e-05 0.089679)
(0.000204201 -0.000155571 0.0978859)
(0.000228741 -0.000189653 0.099661)
(0.000218152 -0.000200342 0.0999848)
(0.000202187 -0.00020677 0.100061)
(0.000183645 -0.000211714 0.10008)
(0.000163935 -0.000216146 0.100082)
(0.000143957 -0.000220367 0.100081)
(0.000124125 -0.000224348 0.10008)
(0.000104575 -0.000227962 0.10008)
(8.52982e-05 -0.000231063 0.10008)
(6.62231e-05 -0.000233561 0.100081)
(4.72668e-05 -0.000235405 0.100082)
(2.8361e-05 -0.000236599 0.100083)
(9.4704e-06 -0.000237164 0.100083)
(-9.41482e-06 -0.000237117 0.100084)
(-2.82998e-05 -0.000236464 0.100084)
(-4.71961e-05 -0.000235195 0.100083)
(-6.61454e-05 -0.000233291 0.100082)
(-8.52157e-05 -0.000230765 0.100081)
(-0.000104499 -0.000227662 0.10008)
(-0.000124069 -0.000224084 0.100079)
(-0.000143927 -0.000220168 0.100079)
(-0.000163937 -0.000216032 0.100079)
(-0.000183665 -0.000211688 0.100076)
(-0.00020221 -0.000206802 0.100058)
(-0.000218143 -0.00020038 0.0999827)
(-0.000228701 -0.000189595 0.0996612)
(-0.000204206 -0.000155277 0.0978888)
(-0.000150754 -9.40188e-05 0.0896821)
(0.000142537 -9.64222e-05 0.0883195)
(0.000188235 -0.000160992 0.0971778)
(0.000215622 -0.000202997 0.099445)
(0.000206572 -0.000216967 0.099895)
(0.000191861 -0.000225584 0.100019)
(0.000174278 -0.000232155 0.10006)
(0.000155442 -0.000237941 0.100076)
(0.00013641 -0.00024334 0.100084)
(0.000117643 -0.000248344 0.10009)
(9.92178e-05 -0.000252787 0.100095)
(8.10523e-05 -0.000256529 0.1001)
(6.30286e-05 -0.000259471 0.100103)
(4.50412e-05 -0.000261608 0.100106)
(2.70295e-05 -0.000262971 0.100108)
(8.98572e-06 -0.000263612 0.100109)
(-9.06983e-06 -0.000263566 0.100109)
(-2.71029e-05 -0.000262836 0.100109)
(-4.50907e-05 -0.000261391 0.100108)
(-6.30495e-05 -0.000259198 0.100105)
(-8.10511e-05 -0.000256217 0.100101)
(-9.92e-05 -0.000252478 0.100096)
(-0.000117627 -0.000248071 0.10009)
(-0.000136415 -0.000243142 0.100082)
(-0.000155478 -0.000237849 0.100072)
(-0.000174349 -0.00023217 0.100055)
(-0.000191951 -0.000225687 0.100013)
(-0.00020666 -0.000217073 0.09989)
(-0.00021569 -0.000202989 0.0994427)
(-0.000188413 -0.000160599 0.0971794)
(-0.000142963 -9.54343e-05 0.0883228)
(0.000133959 -9.67597e-05 0.086509)
(0.000170506 -0.000157148 0.0960523)
(0.000200315 -0.00021106 0.0990764)
(0.000193082 -0.000230305 0.0997446)
(0.00017963 -0.000241739 0.0999438)
(0.000163015 -0.000250398 0.100016)
(0.000145243 -0.000257896 0.100049)
(0.000127516 -0.000264763 0.100071)
(0.000110221 -0.000270981 0.100089)
(9.32793e-05 -0.000276369 0.100103)
(7.64905e-05 -0.000280776 0.100114)
(5.96832e-05 -0.000284162 0.100122)
(4.27516e-05 -0.000286568 0.100128)
(2.56768e-05 -0.000288085 0.100131)
(8.48843e-06 -0.000288796 0.100134)
(-8.73297e-06 -0.000288749 0.100134)
(-2.58974e-05 -0.000287949 0.100133)
(-4.29388e-05 -0.000286354 0.10013)
(-5.98219e-05 -0.000283881 0.100125)
(-7.65755e-05 -0.000280459 0.100117)
(-9.33257e-05 -0.000276045 0.100105)
(-0.000110243 -0.000270693 0.10009)
(-0.000127543 -0.000264561 0.10007)
(-0.000145295 -0.000257813 0.100046)
(-0.000163113 -0.000250463 0.100009)
(-0.000179776 -0.000241922 0.0999358)
(-0.000193266 -0.000230542 0.0997362)
(-0.000200548 -0.000211149 0.0990701)
(-0.000170894 -0.000156781 0.0960509)
(-0.000134767 -9.54556e-05 0.0865115)
(0.000136005 -6.68989e-05 0.0839986)
(0.000149544 -0.000146632 0.0941052)
(0.000181481 -0.000216818 0.0983893)
(0.000176795 -0.000239264 0.0994673)
(0.000163763 -0.000253691 0.0997717)
(0.000147871 -0.000264906 0.0998847)
(0.000131739 -0.000274627 0.0999506)
(0.000116171 -0.000283317 0.1)
(0.000101154 -0.000290919 0.10004)
(8.63172e-05 -0.000297286 0.100071)
(7.13244e-05 -0.000302324 0.100094)
(5.59875e-05 -0.000306113 0.100111)
(4.0268e-05 -0.000308765 0.100123)
(2.42148e-05 -0.000310428 0.100131)
(7.95551e-06 -0.000311205 0.100136)
(-8.36865e-06 -0.000311162 0.100136)
(-2.46061e-05 -0.000310294 0.100133)
(-4.0602e-05 -0.000308552 0.100127)
(-5.62517e-05 -0.000305831 0.100116)
(-7.15121e-05 -0.000301999 0.100099)
(-8.64249e-05 -0.00029694 0.100075)
(-0.000101206 -0.000290607 0.100043)
(-0.000116191 -0.000283081 0.100002)
(-0.00013176 -0.000274537 0.099949)
(-0.00014793 -0.000264993 0.0998795)
(-0.000163903 -0.000253938 0.0997629)
(-0.000176996 -0.000239632 0.099456)
(-0.000181803 -0.000217096 0.0983784)
(-0.000150184 -0.000146371 0.0940993)
(-0.000137189 -6.53824e-05 0.0839992)