/*--------------------------------*- C++ -*----------------------------------*\
| =========                 |                                                 |
| \\      /  F ield         | OpenFOAM: The Open Source CFD Toolbox           |
|  \\    /   O peration     | Version:  2312                                  |
|   \\  /    A nd           | Website:  www.openfoam.com                      |
|    \\/     M anipulation  |                                                 |
\*---------------------------------------------------------------------------*/
FoamFile
{
    version     2.0;
    format      ascii;
    arch        "LSB;label=32;scalar=64";
    class       volScalarField;
    location    "550";
    object      alphat;
}
// * * * * * * * * * * * * * * * * * * * * * * * * * * * * * * * * * * * * * //

dimensions      [1 -1 -1 0 0 0 0];

internalField   nonuniform List<scalar> 
27000
(
0.00395
0.0067035
0.00936141
0.0117402
0.0140518
0.0162086
0.0181661
0.0198187
0.0212397
0.0224532
0.0234568
0.0242494
0.0248406
0.0252338
0.0254304
0.0254311
0.0252359
0.0248441
0.0242541
0.0234623
0.0224583
0.021245
0.019824
0.018171
0.0162128
0.0140545
0.0117412
0.00936077
0.00670199
0.00394894
0.00574928
0.00127953
0.00515877
0.00907638
0.0131591
0.017038
0.0207012
0.0241081
0.0271928
0.0299338
0.0323094
0.0342894
0.0358212
0.0368635
0.0373901
0.0373882
0.0368581
0.0358132
0.0342801
0.0323013
0.0299289
0.0271893
0.0241053
0.0206986
0.0170363
0.0131581
0.0090762
0.00515844
0.001279
0.00574825
0.00922504
0.00713044
0.0145393
0.026168
0.0368844
0.0462505
0.0548154
0.0628396
0.0701377
0.0765742
0.0820763
0.0865951
0.0900577
0.0923974
0.0935736
0.0935678
0.0923813
0.090035
0.0865731
0.0820657
0.0765766
0.0701496
0.0628563
0.0548323
0.0462649
0.0368937
0.0261817
0.0145509
0.00712527
0.00922394
0.0121558
0.0108384
0.0261064
0.0527063
0.0782883
0.0963916
0.109902
0.120968
0.130288
0.138027
0.144371
0.149409
0.153176
0.155682
0.156932
0.156928
0.155671
0.153163
0.149404
0.144382
0.138054
0.130332
0.121017
0.10994
0.0964103
0.0782983
0.0527375
0.0261334
0.010837
0.012156
0.0149234
0.0144765
0.0369362
0.0763025
0.11338
0.139214
0.156058
0.167899
0.176802
0.183266
0.188277
0.192151
0.194984
0.196843
0.197764
0.197762
0.19684
0.194983
0.192156
0.188288
0.183266
0.176829
0.167941
0.156089
0.139232
0.113399
0.0763482
0.0369669
0.0144764
0.0149251
0.0174861
0.0184162
0.0477736
0.0953792
0.137959
0.16735
0.185487
0.196865
0.204379
0.209465
0.213029
0.215579
0.217362
0.218501
0.219057
0.219057
0.218501
0.217364
0.215587
0.213043
0.209486
0.204413
0.196904
0.185528
0.167411
0.138011
0.0954385
0.0478058
0.0184162
0.017489
0.0198199
0.0225585
0.0586398
0.111636
0.155884
0.185217
0.202923
0.213274
0.219412
0.22315
0.225497
0.227015
0.227997
0.228594
0.228878
0.228878
0.228595
0.228001
0.227024
0.225514
0.223175
0.219445
0.213312
0.202966
0.18527
0.155942
0.111693
0.0586616
0.0225566
0.0198235
0.0219068
0.0267525
0.0691661
0.125692
0.169938
0.197427
0.213431
0.222318
0.227155
0.229782
0.231223
0.232026
0.232481
0.23273
0.232841
0.232841
0.232731
0.232485
0.232037
0.23124
0.229807
0.227186
0.222354
0.213472
0.197471
0.169981
0.125731
0.0691755
0.026748
0.0219115
0.0237198
0.030875
0.0790034
0.13773
0.18102
0.206115
0.220035
0.227343
0.231008
0.232764
0.233564
0.233906
0.234041
0.234088
0.234101
0.234102
0.23409
0.234046
0.233917
0.233581
0.232787
0.231035
0.227373
0.220066
0.206143
0.181033
0.137746
0.0789997
0.0308685
0.0237242
0.025273
0.0347654
0.087928
0.147818
0.188868
0.212141
0.224248
0.230173
0.232872
0.233976
0.234343
0.234403
0.234359
0.234302
0.234267
0.234268
0.234304
0.234364
0.234412
0.234357
0.233994
0.232892
0.230195
0.224269
0.212158
0.188878
0.147816
0.0879133
0.0347577
0.0252768
0.0265674
0.0382687
0.0957229
0.156265
0.195383
0.216562
0.227031
0.231805
0.233751
0.234388
0.234476
0.234374
0.23424
0.234136
0.234082
0.234083
0.234138
0.234245
0.234381
0.234486
0.2344
0.233764
0.231817
0.227041
0.216567
0.19538
0.156249
0.0956998
0.0382601
0.0265705
0.0276025
0.0412487
0.102173
0.163008
0.200457
0.219821
0.228915
0.232775
0.23416
0.234474
0.234387
0.2342
0.234028
0.23391
0.233851
0.233852
0.233911
0.234031
0.234204
0.234393
0.23448
0.234166
0.232779
0.228915
0.219816
0.200443
0.162983
0.102145
0.0412396
0.027605
0.0283786
0.0435902
0.107129
0.168068
0.204157
0.222116
0.230168
0.233357
0.234347
0.234449
0.234261
0.234031
0.233848
0.233731
0.233674
0.233675
0.233732
0.23385
0.234033
0.234263
0.234451
0.234347
0.233354
0.230161
0.222104
0.204137
0.168038
0.107098
0.0435811
0.0283806
0.0288959
0.0452028
0.110488
0.171464
0.206575
0.223577
0.230936
0.233689
0.234431
0.234406
0.234162
0.233915
0.233732
0.233619
0.233567
0.233567
0.233619
0.233732
0.233915
0.234162
0.234405
0.234427
0.233681
0.230925
0.22356
0.206551
0.171435
0.110457
0.0451939
0.0288977
0.0291545
0.0460245
0.112182
0.173158
0.207765
0.224285
0.2313
0.233839
0.234463
0.234379
0.234111
0.233858
0.233676
0.233567
0.233517
0.233517
0.233567
0.233676
0.233857
0.234109
0.234376
0.234457
0.23383
0.231287
0.224268
0.207742
0.173131
0.112152
0.0460159
0.0291562
0.0291545
0.0460243
0.112181
0.173157
0.207764
0.224284
0.231299
0.233838
0.234462
0.234378
0.23411
0.233857
0.233676
0.233566
0.233516
0.233516
0.233566
0.233675
0.233856
0.234108
0.234375
0.234456
0.23383
0.231287
0.224267
0.207741
0.17313
0.112151
0.0460157
0.0291562
0.0288958
0.0452023
0.110485
0.17146
0.206571
0.223574
0.230933
0.233686
0.234429
0.234404
0.23416
0.233913
0.233729
0.233616
0.233564
0.233564
0.233617
0.23373
0.233913
0.23416
0.234403
0.234425
0.23368
0.230923
0.223558
0.206549
0.171432
0.110456
0.0451933
0.0288978
0.0283785
0.0435893
0.107125
0.168062
0.204152
0.222111
0.230164
0.233353
0.234343
0.234446
0.234257
0.234027
0.233844
0.233726
0.23367
0.23367
0.233727
0.233846
0.23403
0.234259
0.234448
0.234344
0.233351
0.230158
0.2221
0.204133
0.168034
0.107096
0.0435801
0.0283808
0.0276024
0.0412475
0.102169
0.163002
0.20045
0.219815
0.228909
0.232769
0.234154
0.234468
0.234381
0.234193
0.234021
0.233902
0.233844
0.233845
0.233904
0.234025
0.234198
0.234388
0.234475
0.23416
0.232774
0.22891
0.219811
0.200438
0.162979
0.102142
0.0412383
0.0276051
0.0265673
0.0382674
0.0957187
0.156258
0.195375
0.216554
0.227024
0.231798
0.233744
0.23438
0.234468
0.234365
0.234231
0.234126
0.234072
0.234073
0.234129
0.234236
0.234373
0.234478
0.234392
0.233757
0.23181
0.227034
0.21656
0.195374
0.156244
0.095697
0.0382586
0.0265705
0.0252731
0.0347641
0.0879239
0.147811
0.18886
0.212133
0.22424
0.230165
0.232863
0.233966
0.234333
0.234392
0.234346
0.234288
0.234254
0.234255
0.234292
0.234353
0.234401
0.234347
0.233984
0.232882
0.230185
0.22426
0.21215
0.188871
0.147811
0.0879098
0.034756
0.0252768
0.0237199
0.0308737
0.079
0.137725
0.181011
0.206106
0.220025
0.227333
0.230997
0.232753
0.233551
0.233892
0.234025
0.234071
0.234085
0.234086
0.234074
0.234032
0.233903
0.233568
0.232774
0.231023
0.227361
0.220054
0.206133
0.181025
0.137739
0.0789954
0.0308668
0.023724
0.0219071
0.0267515
0.0691639
0.125688
0.16993
0.197417
0.213421
0.222307
0.227143
0.229768
0.231207
0.232008
0.232461
0.232709
0.232821
0.232821
0.232712
0.232468
0.23202
0.231224
0.229793
0.227172
0.22234
0.213458
0.197458
0.169971
0.125724
0.0691711
0.0267463
0.0219112
0.0198202
0.0225579
0.0586392
0.111634
0.155877
0.185207
0.202911
0.213261
0.219398
0.223133
0.225478
0.226993
0.227974
0.228571
0.228855
0.228856
0.228574
0.227981
0.227005
0.225496
0.223158
0.21943
0.213298
0.202953
0.185258
0.155933
0.111687
0.0586586
0.0225553
0.0198232
0.0174863
0.0184164
0.0477754
0.0953771
0.137951
0.16734
0.185475
0.196851
0.204362
0.209444
0.213006
0.215554
0.217335
0.218474
0.21903
0.219031
0.218476
0.217342
0.215566
0.213024
0.209468
0.204397
0.196891
0.185517
0.167401
0.138005
0.0954361
0.0478064
0.018416
0.0174887
0.0149235
0.0144768
0.0369379
0.0762996
0.113371
0.139204
0.156047
0.167882
0.176779
0.183236
0.18825
0.192123
0.194954
0.196812
0.197733
0.197733
0.196813
0.194958
0.192134
0.188268
0.183245
0.176812
0.167928
0.156083
0.13923
0.113401
0.0763502
0.0369688
0.0144765
0.0149247
0.0121558
0.0108385
0.0261082
0.0527049
0.0782839
0.0963876
0.109897
0.12096
0.130275
0.138007
0.144346
0.149379
0.153142
0.155648
0.156898
0.156895
0.155641
0.153137
0.149382
0.144364
0.138038
0.13032
0.121011
0.109939
0.0964146
0.0783056
0.0527443
0.0261365
0.0108373
0.0121557
0.00922492
0.00713035
0.0145405
0.0261686
0.0368846
0.0462497
0.0548109
0.0628318
0.0701265
0.0765593
0.0820565
0.0865698
0.09003
0.0923693
0.0935461
0.0935417
0.0923572
0.0900138
0.0865566
0.0820526
0.076566
0.0701411
0.0628505
0.0548301
0.0462671
0.036898
0.026186
0.0145529
0.00712613
0.00922377
0.0057493
0.00127953
0.005159
0.00907654
0.0131594
0.0170379
0.0207003
0.0241067
0.0271907
0.029931
0.0323051
0.034284
0.0358156
0.0368578
0.0373846
0.037383
0.0368534
0.035809
0.0342766
0.0322985
0.0299269
0.0271876
0.024104
0.0206981
0.0170363
0.0131583
0.00907618
0.00515826
0.00127887
0.00574814
0.00394994
0.00670353
0.00936174
0.0117409
0.0140528
0.0162099
0.0181676
0.0198204
0.0212416
0.0224552
0.0234591
0.0242518
0.024843
0.0252362
0.0254327
0.0254333
0.0252379
0.0248459
0.0242557
0.0234637
0.0224593
0.0212458
0.0198246
0.0181714
0.016213
0.0140547
0.0117413
0.00936088
0.00670202
0.00394893
0.00356579
0.0060959
0.0087004
0.0110709
0.0134416
0.015683
0.0177498
0.0195258
0.0210611
0.0223843
0.0235005
0.024411
0.025098
0.0255569
0.0257862
0.0257851
0.0255537
0.0250926
0.0244035
0.0234912
0.022376
0.0210519
0.0195156
0.0177366
0.0156718
0.0134344
0.0110689
0.008703
0.00610104
0.00356931
0.0051275
0.00162087
0.00748103
0.0110609
0.0146436
0.0176487
0.0202135
0.0226121
0.0247042
0.0264963
0.0279858
0.0291658
0.0300489
0.03064
0.0309378
0.0309408
0.0306485
0.0300615
0.02918
0.0279974
0.0265028
0.0247074
0.0226145
0.0202187
0.0176607
0.0146604
0.0110794
0.00749619
0.00162759
0.00513318
0.00869315
0.0102648
0.0132371
0.0166784
0.021825
0.027253
0.0322697
0.0366623
0.0406865
0.0443006
0.0473952
0.0498746
0.0517407
0.0529986
0.0536379
0.0536501
0.0530346
0.0517968
0.049938
0.0474285
0.0443145
0.040684
0.0366529
0.0322572
0.0272384
0.0218146
0.0166697
0.013241
0.0103123
0.00869839
0.0115725
0.013474
0.0178871
0.0256176
0.035792
0.0464162
0.0558916
0.0641699
0.0715254
0.0781727
0.0838711
0.0884502
0.0918683
0.0941374
0.0952822
0.0953136
0.094229
0.0920109
0.0886225
0.0840337
0.0782984
0.0715653
0.0641559
0.0558245
0.0463143
0.0356874
0.025569
0.0178758
0.0135097
0.0115736
0.014422
0.0159379
0.0227234
0.035787
0.0541904
0.0734529
0.0895795
0.102257
0.112581
0.121489
0.128762
0.134408
0.138498
0.141102
0.142382
0.142402
0.141161
0.138595
0.13455
0.12889
0.121584
0.112578
0.102155
0.0893682
0.0731968
0.0540111
0.0356798
0.0226844
0.0159655
0.014418
0.0171359
0.0181425
0.028507
0.0469287
0.0731059
0.0996063
0.121792
0.137874
0.149532
0.15846
0.165362
0.170561
0.174264
0.176625
0.177776
0.177786
0.176656
0.174314
0.170619
0.165396
0.158449
0.149458
0.137733
0.121552
0.0993241
0.0728682
0.046822
0.02846
0.0181609
0.0171285
0.0196476
0.0205435
0.0338848
0.0582155
0.090715
0.122125
0.146592
0.163953
0.175995
0.184499
0.190621
0.195008
0.198035
0.199935
0.200852
0.200857
0.199948
0.198052
0.195018
0.190608
0.184454
0.175915
0.163834
0.146426
0.12191
0.0905493
0.0581593
0.0338555
0.0205438
0.019641
0.0219481
0.0230283
0.0390077
0.0689207
0.105964
0.139605
0.164606
0.181971
0.193648
0.201464
0.206738
0.210299
0.212647
0.214076
0.214753
0.214754
0.214078
0.212646
0.210288
0.206708
0.201413
0.193576
0.181879
0.164496
0.139494
0.105908
0.068938
0.0389948
0.0230298
0.02194
0.0240492
0.0253445
0.0439118
0.0789211
0.119058
0.153137
0.177679
0.194284
0.205126
0.212081
0.216516
0.219334
0.221091
0.222115
0.222586
0.222586
0.222111
0.221082
0.219315
0.216483
0.212033
0.205067
0.194217
0.177611
0.153091
0.119081
0.0789826
0.0439142
0.025349
0.0240421
0.0258913
0.0274281
0.0483572
0.0876207
0.130244
0.163768
0.187257
0.202733
0.212535
0.218575
0.22223
0.224411
0.225685
0.226387
0.226697
0.226696
0.226381
0.225674
0.224392
0.222201
0.218537
0.212491
0.202688
0.187218
0.16375
0.130268
0.087693
0.0483724
0.0274355
0.0258857
0.0274526
0.0292444
0.0522257
0.0947872
0.138635
0.171788
0.194212
0.208534
0.217305
0.222492
0.225468
0.227128
0.228026
0.228484
0.228675
0.228674
0.228479
0.228016
0.227112
0.225445
0.222465
0.217277
0.208509
0.194196
0.171791
0.13867
0.0948553
0.0522508
0.0292541
0.0274483
0.028718
0.0307563
0.0554529
0.100516
0.145004
0.17769
0.199166
0.212475
0.220354
0.224824
0.22725
0.228509
0.229128
0.229412
0.229519
0.229518
0.229408
0.229121
0.228498
0.227237
0.224809
0.220342
0.212467
0.199168
0.177708
0.145043
0.10057
0.0554816
0.0307672
0.0287148
0.0296763
0.0319281
0.0579639
0.104862
0.149666
0.181875
0.20257
0.215076
0.22226
0.226182
0.228202
0.229172
0.229598
0.229764
0.229817
0.229816
0.229762
0.229594
0.229166
0.228196
0.226177
0.222259
0.215081
0.202584
0.181901
0.149704
0.104901
0.0579925
0.0319392
0.0296739
0.0303195
0.0327293
0.0596863
0.107819
0.152753
0.184577
0.20471
0.216659
0.223372
0.226928
0.228681
0.229467
0.229773
0.229868
0.229888
0.229888
0.229867
0.229772
0.229466
0.228681
0.22693
0.223378
0.216672
0.20473
0.184605
0.152787
0.107848
0.0597129
0.0327398
0.0303175
0.0306423
0.0331386
0.0605653
0.10931
0.154293
0.185906
0.205745
0.21741
0.223885
0.227258
0.22888
0.229577
0.229826
0.229888
0.229892
0.229892
0.229887
0.229826
0.229577
0.228882
0.227263
0.223894
0.217426
0.205768
0.185934
0.154324
0.109333
0.0605883
0.0331472
0.0306405
0.0306424
0.0331385
0.0605654
0.109311
0.154295
0.185908
0.205747
0.217412
0.223886
0.227259
0.228881
0.229578
0.229827
0.229888
0.229892
0.229892
0.229888
0.229826
0.229578
0.228883
0.227264
0.223895
0.217427
0.205769
0.185935
0.154325
0.109334
0.0605878
0.0331469
0.0306406
0.0303199
0.0327287
0.0596863
0.107822
0.152758
0.184582
0.204715
0.216664
0.223376
0.226931
0.228684
0.22947
0.229776
0.229871
0.22989
0.22989
0.229869
0.229774
0.229467
0.228682
0.226932
0.223381
0.216674
0.204733
0.184608
0.15279
0.107851
0.059711
0.0327386
0.0303177
0.029677
0.031927
0.0579637
0.104867
0.149674
0.181884
0.202578
0.215083
0.222267
0.226187
0.228207
0.229177
0.229603
0.229769
0.229822
0.229821
0.229766
0.229598
0.22917
0.2282
0.226182
0.222264
0.215086
0.202589
0.181906
0.149709
0.104905
0.0579896
0.0319373
0.0296743
0.0287188
0.0307549
0.0554523
0.100523
0.145015
0.177701
0.199177
0.212485
0.220364
0.224832
0.227259
0.228517
0.229137
0.22942
0.229528
0.229526
0.229416
0.229128
0.228505
0.227244
0.224817
0.22035
0.212476
0.199177
0.177715
0.14505
0.100575
0.0554779
0.0307649
0.0287154
0.0274535
0.0292428
0.0522228
0.0947959
0.138647
0.171802
0.194225
0.208546
0.217317
0.222504
0.22548
0.227141
0.228039
0.228498
0.228689
0.228687
0.228491
0.228028
0.227124
0.225458
0.222478
0.21729
0.208522
0.194209
0.171802
0.138678
0.0948583
0.0522444
0.0292515
0.0274491
0.0258922
0.0274267
0.0483536
0.0876315
0.130257
0.163782
0.187271
0.202748
0.21255
0.218591
0.222247
0.22443
0.225705
0.226407
0.226717
0.226715
0.2264
0.225692
0.22441
0.222219
0.218555
0.21251
0.202707
0.187235
0.163764
0.130276
0.0876951
0.0483664
0.0274331
0.0258868
0.0240501
0.0253435
0.0439079
0.0789332
0.119074
0.153152
0.177694
0.1943
0.205143
0.2121
0.216539
0.219359
0.221118
0.222142
0.222613
0.222612
0.222137
0.221107
0.219339
0.216507
0.212057
0.20509
0.19424
0.177633
0.153107
0.119089
0.0789846
0.0439097
0.0253474
0.0240436
0.0219488
0.0230278
0.039003
0.0689307
0.105976
0.139616
0.16462
0.181987
0.193667
0.201488
0.206767
0.210332
0.212682
0.214111
0.214788
0.214788
0.214111
0.212678
0.210318
0.206737
0.201441
0.193603
0.181906
0.164522
0.139514
0.105919
0.0689416
0.0389919
0.0230295
0.0219418
0.0196483
0.0205439
0.033878
0.058215
0.0907172
0.122131
0.146603
0.163969
0.176017
0.18453
0.190659
0.195051
0.19808
0.199978
0.200893
0.200897
0.199987
0.19809
0.195054
0.190642
0.184485
0.175943
0.163862
0.146454
0.121937
0.0905647
0.0581621
0.0338525
0.0205449
0.0196428
0.017137
0.0181495
0.0284978
0.0469226
0.0731013
0.0996084
0.121803
0.137892
0.149561
0.158502
0.165414
0.170619
0.17432
0.176676
0.177824
0.177832
0.1767
0.174358
0.170661
0.165435
0.158484
0.149488
0.137762
0.121586
0.0993553
0.072888
0.0468255
0.0284536
0.0181689
0.0171312
0.0144232
0.0159445
0.0227179
0.0357806
0.0541838
0.073454
0.0895937
0.102285
0.112627
0.121554
0.128834
0.134486
0.138566
0.141164
0.142441
0.142457
0.141212
0.138642
0.134597
0.128932
0.121622
0.112611
0.102184
0.0893996
0.0732242
0.0540231
0.0356848
0.0226812
0.0159717
0.0144206
0.011574
0.0134799
0.0178885
0.0256123
0.0357867
0.0464149
0.055898
0.0641869
0.0715552
0.0782261
0.0839359
0.0885249
0.0919442
0.0942105
0.0953512
0.0953779
0.0942876
0.0920616
0.088662
0.0840661
0.0783244
0.0715819
0.0641662
0.0558319
0.0463207
0.0356922
0.0255659
0.0178794
0.0135138
0.0115757
0.00869455
0.010271
0.0132389
0.0166765
0.0218206
0.0272468
0.032267
0.0366622
0.0406887
0.0443063
0.0474058
0.0499009
0.0517685
0.0530255
0.0536633
0.0536739
0.0530563
0.0518145
0.0499398
0.0474273
0.0443132
0.0406824
0.0366499
0.0322517
0.0272294
0.0218078
0.0166662
0.0132422
0.0103118
0.00869965
0.00512841
0.00162162
0.00748321
0.0110641
0.0146478
0.0176533
0.0202172
0.0226143
0.0247062
0.0264985
0.0279889
0.0291696
0.0300525
0.030643
0.0309402
0.0309425
0.0306496
0.0300621
0.0291799
0.027997
0.0265024
0.0247078
0.0226161
0.0202253
0.0176671
0.0146652
0.0110821
0.00749781
0.00162791
0.00513389
0.0035662
0.00609641
0.00870056
0.0110707
0.013441
0.0156821
0.0177487
0.0195251
0.0210606
0.0223838
0.0234995
0.0244102
0.0250973
0.0255564
0.0257859
0.025785
0.0255537
0.0250928
0.0244039
0.0234919
0.0223771
0.0210532
0.019517
0.0177386
0.0156738
0.0134361
0.0110701
0.00870374
0.00610133
0.00356953
0.00336304
0.0057184
0.00823743
0.0105626
0.0128988
0.0151067
0.0171331
0.018872
0.0203982
0.0217183
0.0228226
0.0237045
0.0243688
0.0248138
0.0250378
0.0250399
0.02482
0.0243789
0.0237183
0.0228394
0.0217362
0.0204175
0.0188918
0.0171543
0.0151235
0.0129087
0.010565
0.00823348
0.00571067
0.00335734
0.00487617
0.00251235
0.0106872
0.0159515
0.021016
0.0255229
0.0293814
0.0323781
0.0346742
0.0363971
0.0376931
0.0386645
0.0393651
0.0398226
0.0400503
0.0400537
0.0398326
0.0393814
0.0386862
0.0377196
0.0364268
0.0347039
0.0324026
0.0293898
0.0255092
0.0209856
0.0159161
0.0106582
0.00248856
0.00486661
0.00828525
0.0130056
0.0172734
0.0210846
0.0240921
0.0271741
0.0301834
0.0330906
0.0359125
0.038385
0.040486
0.0422124
0.0435323
0.0444215
0.0448683
0.0448677
0.0444217
0.0435387
0.0422331
0.0405374
0.0384573
0.0359977
0.0331627
0.0302016
0.0271767
0.024104
0.0211008
0.0172647
0.0129165
0.00827569
0.011062
0.0181502
0.0232597
0.0248957
0.0287301
0.034845
0.0415456
0.0478178
0.0532723
0.0578034
0.0616032
0.0647312
0.0671388
0.0687701
0.0695803
0.0695523
0.0686883
0.0670107
0.0645719
0.0614504
0.0576899
0.0532683
0.0478281
0.0415178
0.0347521
0.028766
0.0249342
0.0232392
0.0180796
0.0110577
0.0137995
0.0221168
0.0263774
0.0295505
0.0384855
0.0508194
0.0623187
0.072005
0.0799601
0.0866078
0.0920982
0.096577
0.100089
0.10259
0.103849
0.103808
0.102469
0.099889
0.0962837
0.09188
0.0864801
0.0799431
0.0720722
0.0624186
0.0507025
0.0383097
0.0295775
0.0263641
0.0220604
0.013803
0.0164244
0.025578
0.0286181
0.0359902
0.0511026
0.0691113
0.0865845
0.101472
0.113361
0.122592
0.129752
0.135255
0.139312
0.141954
0.143247
0.14322
0.141867
0.139135
0.135045
0.1296
0.122541
0.11343
0.101657
0.0868924
0.0692622
0.0510836
0.0360026
0.0286131
0.0255467
0.0164345
0.0188979
0.0282443
0.0310229
0.0437092
0.0633992
0.0869244
0.110288
0.129032
0.142809
0.152912
0.160359
0.165811
0.169659
0.172108
0.173292
0.173279
0.172069
0.169595
0.165752
0.160342
0.152961
0.142923
0.129214
0.110561
0.0872046
0.0635125
0.0437319
0.0310846
0.0282476
0.0189094
0.0211748
0.0303501
0.0342742
0.0509844
0.0748647
0.103561
0.130016
0.150142
0.164641
0.174928
0.182196
0.187286
0.190738
0.192877
0.193899
0.193896
0.192868
0.190728
0.18729
0.182229
0.174998
0.164748
0.150286
0.130185
0.103706
0.0748891
0.050948
0.0343486
0.0303611
0.0211877
0.0232077
0.0320268
0.0376557
0.057299
0.0849227
0.117798
0.145318
0.1657
0.18013
0.190131
0.196977
0.201595
0.204612
0.206428
0.207281
0.207282
0.206433
0.204623
0.201619
0.197022
0.190198
0.180215
0.165799
0.145413
0.117828
0.0848347
0.0572265
0.0377156
0.0320381
0.0232194
0.0249964
0.0333948
0.0409704
0.0632888
0.094893
0.12963
0.15711
0.177068
0.190971
0.200416
0.206709
0.210816
0.213407
0.21492
0.215617
0.215619
0.214929
0.213423
0.210843
0.206749
0.200468
0.191032
0.17713
0.157156
0.129626
0.0948076
0.0632127
0.0410036
0.0334053
0.0250063
0.0265218
0.0345142
0.0439912
0.0686007
0.103546
0.138867
0.166
0.185286
0.198482
0.207267
0.212975
0.216587
0.218789
0.220035
0.220595
0.220598
0.220042
0.218803
0.216608
0.213004
0.207303
0.198518
0.185316
0.166011
0.138838
0.103461
0.0685352
0.0439955
0.0345239
0.0265299
0.0277659
0.0354154
0.0464984
0.0729874
0.110463
0.145901
0.172525
0.191107
0.203597
0.211747
0.216914
0.220088
0.22196
0.222984
0.223433
0.223435
0.222989
0.221969
0.220101
0.216931
0.211765
0.203612
0.191111
0.17251
0.145858
0.110392
0.0729464
0.0464971
0.0354244
0.0277724
0.0287133
0.0361069
0.048429
0.0763032
0.11559
0.150979
0.177105
0.195072
0.206962
0.214581
0.219305
0.22213
0.223744
0.224599
0.224965
0.224965
0.224602
0.223748
0.222135
0.219311
0.214584
0.20696
0.195058
0.177076
0.150934
0.115541
0.0762872
0.0484283
0.0361142
0.0287184
0.0293519
0.0365853
0.0497604
0.0784985
0.118961
0.154272
0.180022
0.19754
0.208999
0.21624
0.220653
0.223237
0.224676
0.225418
0.225727
0.225728
0.225418
0.224677
0.223237
0.220652
0.216234
0.208986
0.197517
0.179988
0.154231
0.118929
0.0784978
0.0497601
0.0365873
0.0293559
0.0296737
0.0368593
0.0504439
0.0796023
0.120631
0.155891
0.181442
0.198725
0.20996
0.217005
0.221259
0.223719
0.22507
0.225755
0.226037
0.226037
0.225755
0.225069
0.223717
0.221254
0.216995
0.209943
0.198699
0.181407
0.155855
0.120609
0.0796085
0.050442
0.0368407
0.0296769
0.0296734
0.0368598
0.0504441
0.0796021
0.120631
0.155891
0.181441
0.198724
0.209959
0.217005
0.221259
0.22372
0.225071
0.225756
0.226038
0.226038
0.225756
0.225071
0.223718
0.221255
0.216997
0.209944
0.1987
0.181408
0.155856
0.120609
0.0796072
0.0504423
0.0368417
0.0296766
0.0293507
0.036582
0.0497607
0.0784975
0.118961
0.154271
0.18002
0.197539
0.208999
0.216241
0.220655
0.223238
0.224678
0.22542
0.22573
0.225731
0.225421
0.22468
0.22324
0.220655
0.216237
0.208989
0.19752
0.17999
0.154233
0.11893
0.0784945
0.0497607
0.0365842
0.0293549
0.0287113
0.0361009
0.0484294
0.0763014
0.11559
0.150977
0.177102
0.195069
0.206961
0.214581
0.219306
0.222131
0.223746
0.224602
0.224968
0.224969
0.224605
0.223752
0.222139
0.219314
0.214588
0.206963
0.195061
0.17708
0.150938
0.115544
0.0762836
0.0484295
0.0361081
0.0287166
0.0277633
0.0354074
0.046501
0.0729859
0.110463
0.145898
0.17252
0.191102
0.203594
0.211746
0.216913
0.220088
0.22196
0.222985
0.223435
0.223437
0.222991
0.221971
0.220104
0.216933
0.211767
0.203613
0.191112
0.172513
0.145863
0.1104
0.0729461
0.0465012
0.0354157
0.0277697
0.0265188
0.0345056
0.0440117
0.0686034
0.103546
0.138862
0.165993
0.185279
0.198476
0.207263
0.212971
0.216583
0.218786
0.220032
0.220593
0.220596
0.220041
0.218802
0.216607
0.213003
0.2073
0.198516
0.185314
0.166011
0.138844
0.103475
0.068546
0.0440218
0.0345142
0.0265264
0.0249931
0.0333864
0.0409957
0.063289
0.0948882
0.129623
0.157103
0.177061
0.190963
0.200407
0.2067
0.210806
0.213398
0.214911
0.215608
0.215612
0.214921
0.213416
0.210836
0.206742
0.200461
0.191024
0.177123
0.157153
0.129631
0.0948226
0.0632257
0.0410311
0.0333952
0.0250021
0.0232044
0.0320192
0.0376823
0.0572947
0.0849106
0.117792
0.145312
0.165691
0.180119
0.190118
0.196961
0.201576
0.204593
0.20641
0.207265
0.207267
0.206417
0.204608
0.201605
0.197008
0.190184
0.180202
0.165787
0.145406
0.117834
0.0848494
0.0572377
0.0377394
0.0320281
0.0232146
0.0211718
0.0303445
0.0342989
0.0509777
0.0748561
0.103558
0.13001
0.150132
0.164626
0.174907
0.182169
0.187255
0.190706
0.192848
0.193873
0.193871
0.192844
0.190704
0.187267
0.182208
0.174979
0.16473
0.15027
0.130172
0.103702
0.0748912
0.0509537
0.0343672
0.0303507
0.0211824
0.018895
0.028237
0.0310351
0.0437109
0.063399
0.0869261
0.110283
0.129018
0.142786
0.152877
0.160314
0.165759
0.169609
0.172065
0.173255
0.173246
0.172035
0.16956
0.165719
0.160313
0.152935
0.1429
0.129192
0.110539
0.087192
0.0635108
0.0437355
0.0310977
0.0282379
0.018904
0.0164212
0.0255637
0.0286135
0.0360009
0.051108
0.0691103
0.0865721
0.101447
0.113319
0.122532
0.129676
0.135168
0.139233
0.141895
0.143198
0.143175
0.141823
0.139089
0.135
0.129562
0.122507
0.113397
0.101625
0.0868595
0.069259
0.0511055
0.0360158
0.0286129
0.0255336
0.0164286
0.0137962
0.0221032
0.0263708
0.0295472
0.0384841
0.0508172
0.0623101
0.0719815
0.0799188
0.0865454
0.0920164
0.0964735
0.100007
0.102519
0.103786
0.103751
0.102418
0.0998411
0.0962326
0.0918423
0.0864505
0.0799191
0.0720544
0.0624116
0.0507299
0.0383422
0.0295688
0.0263585
0.022051
0.0137979
0.011059
0.0181391
0.023251
0.0248916
0.0287275
0.034854
0.0415655
0.047821
0.0532692
0.0577691
0.061559
0.0646822
0.0670924
0.0687278
0.0695426
0.0695192
0.0686596
0.0669863
0.0645521
0.0614349
0.0576789
0.0532681
0.0478327
0.041548
0.0347812
0.0287571
0.0249214
0.0232287
0.018074
0.011054
0.00828284
0.0129961
0.0172684
0.0210803
0.0240866
0.0271692
0.0301817
0.0331107
0.0359386
0.0384121
0.0405138
0.0422355
0.0435566
0.0444476
0.0448961
0.0448968
0.0444511
0.0435672
0.0422645
0.0405645
0.0384791
0.0360155
0.0331755
0.0301973
0.0271716
0.0240961
0.0210929
0.0172585
0.012917
0.00827365
0.00487436
0.00250989
0.0106819
0.0159444
0.0210079
0.0255154
0.0293767
0.0323768
0.034673
0.0363949
0.0376895
0.0386594
0.0393589
0.0398154
0.0400425
0.0400454
0.039824
0.0393727
0.0386777
0.0377116
0.0364191
0.0346963
0.0323948
0.0293777
0.0254983
0.0209781
0.015912
0.0106565
0.00248935
0.00486585
0.00336219
0.00571732
0.00823632
0.0105619
0.0128985
0.0151068
0.0171334
0.018872
0.020398
0.0217177
0.022822
0.0237036
0.0243675
0.0248121
0.0250358
0.0250375
0.0248173
0.0243759
0.0237149
0.0228357
0.0217322
0.0204133
0.0188875
0.0171496
0.0151191
0.0129051
0.0105624
0.00823179
0.00570975
0.00335699
0.0033408
0.00566566
0.00814449
0.0104524
0.0127525
0.0149241
0.0169218
0.0186387
0.0201387
0.0214359
0.0225242
0.0233986
0.0240563
0.024495
0.0247132
0.0247102
0.0244861
0.0240418
0.0233791
0.0225004
0.0214092
0.0201109
0.0186122
0.0168976
0.0149062
0.0127429
0.0104511
0.00814806
0.00567469
0.00334837
0.00486465
0.00308491
0.0120312
0.0184507
0.0245232
0.029957
0.0347117
0.0386854
0.0419222
0.0445303
0.0465919
0.0481732
0.0493211
0.0500666
0.0504287
0.0504168
0.0500324
0.0492685
0.0481082
0.0465227
0.0444689
0.0418797
0.0386731
0.0347319
0.0299975
0.0245643
0.0184729
0.0120353
0.00313936
0.00487679
0.00820801
0.0143347
0.0196207
0.0252158
0.0300846
0.0346681
0.0388849
0.0425119
0.0452762
0.047384
0.0489654
0.0501254
0.0509448
0.051471
0.051729
0.0517288
0.0514708
0.0509457
0.0501304
0.0489807
0.0474261
0.0453406
0.0425786
0.0389415
0.0346682
0.0300075
0.025103
0.0195648
0.0143789
0.00821486
0.0109583
0.0206283
0.0275636
0.0308792
0.0338184
0.0368814
0.0400154
0.0432396
0.0464942
0.0497298
0.0528458
0.055562
0.0577316
0.0592399
0.0600015
0.0599713
0.0591474
0.0575744
0.0553445
0.0525981
0.0496364
0.0464747
0.0432445
0.0400131
0.0368788
0.0336583
0.030718
0.0275401
0.0207072
0.0109657
0.0136299
0.0258342
0.0327294
0.0353547
0.0376115
0.0435314
0.0511308
0.0583682
0.0648761
0.0707358
0.0759342
0.0801614
0.0833226
0.0854362
0.0865146
0.0865372
0.085499
0.0834087
0.0802261
0.0757658
0.07043
0.064708
0.0583364
0.0511748
0.043846
0.037718
0.0352849
0.0327697
0.0259221
0.0136283
0.0161926
0.0304973
0.0365932
0.0384796
0.0433294
0.0552345
0.0679376
0.0791764
0.0886366
0.0965421
0.103175
0.108544
0.112557
0.115383
0.116854
0.116899
0.115526
0.112846
0.108836
0.103332
0.0965109
0.088523
0.0789884
0.0677479
0.0553386
0.0436421
0.0385157
0.0366855
0.0305831
0.0161827
0.01859
0.0344959
0.0395015
0.0412223
0.0515265
0.0681665
0.0850326
0.101
0.114996
0.126018
0.134481
0.140743
0.145175
0.148094
0.149562
0.149583
0.148159
0.14528
0.14083
0.134521
0.125918
0.114762
0.100659
0.0847207
0.0680384
0.0516155
0.041257
0.0395715
0.0345496
0.0185742
0.020797
0.0379382
0.0414052
0.0446415
0.0607132
0.080887
0.102131
0.122621
0.138887
0.15081
0.159527
0.165807
0.170164
0.172937
0.174294
0.174297
0.172947
0.170176
0.165804
0.159486
0.150699
0.138695
0.122299
0.101834
0.080727
0.0605894
0.0446421
0.0414534
0.0379473
0.0207782
0.0227868
0.0408863
0.0429788
0.0490678
0.0697177
0.0927068
0.118166
0.14029
0.157001
0.169099
0.177724
0.183783
0.187893
0.19045
0.191677
0.191674
0.19044
0.187874
0.183749
0.177666
0.169008
0.156872
0.140122
0.117994
0.0926456
0.0697004
0.0488792
0.0429942
0.0408715
0.0227681
0.0245353
0.0433333
0.0443839
0.0538931
0.0772166
0.103386
0.131484
0.153759
0.170299
0.18213
0.190437
0.196161
0.199965
0.202287
0.203387
0.203382
0.202274
0.199942
0.196126
0.190388
0.182065
0.17022
0.153674
0.131423
0.103403
0.0772184
0.0537074
0.0443959
0.0433076
0.0245183
0.0260228
0.0453083
0.0456311
0.0585226
0.083727
0.112977
0.141692
0.163815
0.179909
0.19128
0.199158
0.204497
0.207982
0.210073
0.211051
0.211047
0.210062
0.207964
0.204471
0.199124
0.191241
0.17987
0.163788
0.141705
0.113054
0.0837584
0.0584041
0.0456426
0.045276
0.0260077
0.0272329
0.0468452
0.0467339
0.0624317
0.0890063
0.120598
0.149399
0.171141
0.186714
0.197585
0.205018
0.209978
0.213162
0.215042
0.215912
0.21591
0.215036
0.213151
0.209964
0.205002
0.197571
0.186709
0.171157
0.149457
0.120707
0.0890716
0.0624279
0.0467371
0.0468099
0.02722
0.0281525
0.047973
0.047635
0.0652881
0.0928875
0.12613
0.154879
0.17623
0.191337
0.201766
0.208811
0.213446
0.216376
0.218082
0.218863
0.218862
0.21808
0.216373
0.213443
0.20881
0.201772
0.191356
0.176273
0.154956
0.126238
0.0929486
0.0653009
0.0476346
0.047939
0.0281416
0.0287715
0.0487125
0.0483069
0.0672184
0.0954322
0.129698