/*--------------------------------*- C++ -*----------------------------------*\
| =========                 |                                                 |
| \\      /  F ield         | OpenFOAM: The Open Source CFD Toolbox           |
|  \\    /   O peration     | Version:  2312                                  |
|   \\  /    A nd           | Website:  www.openfoam.com                      |
|    \\/     M anipulation  |                                                 |
\*---------------------------------------------------------------------------*/
FoamFile
{
    version     2.0;
    format      ascii;
    arch        "LSB;label=32;scalar=64";
    class       volScalarField;
    location    "550";
    object      epsilon;
}
// * * * * * * * * * * * * * * * * * * * * * * * * * * * * * * * * * * * * * //

dimensions      [0 2 -3 0 0 0 0];

internalField   nonuniform List<scalar> 
27000
(
0.00152715
0.000224736
0.000110859
7.00745e-05
5.20022e-05
4.17171e-05
3.50114e-05
3.03693e-05
2.70323e-05
2.45887e-05
2.27784e-05
2.14458e-05
2.05144e-05
1.99246e-05
1.96392e-05
1.96406e-05
1.9929e-05
2.0522e-05
2.14568e-05
2.27927e-05
2.46033e-05
2.70502e-05
3.03911e-05
3.50371e-05
4.17456e-05
5.20299e-05
7.00907e-05
0.000110836
0.000224598
0.00152605
0.000150938
3.25743e-05
1.39314e-05
9.31908e-06
7.19124e-06
5.95986e-06
5.12264e-06
4.51109e-06
4.05335e-06
3.71097e-06
3.45544e-06
3.26662e-06
3.13355e-06
3.04887e-06
3.00779e-06
3.00799e-06
3.04944e-06
3.13444e-06
3.2677e-06
3.45645e-06
3.71155e-06
4.05371e-06
4.51122e-06
5.12259e-06
5.95953e-06
7.19021e-06
9.31598e-06
1.3922e-05
3.25431e-05
0.000150852
0.000100231
1.53801e-05
5.14227e-06
2.56032e-06
1.91085e-06
1.62483e-06
1.4454e-06
1.31619e-06
1.21839e-06
1.14379e-06
1.08724e-06
1.04503e-06
1.01495e-06
9.95613e-07
9.86141e-07
9.86104e-07
9.95489e-07
1.01471e-06
1.04461e-06
1.08653e-06
1.14278e-06
1.21719e-06
1.31498e-06
1.44449e-06
1.62464e-06
1.91167e-06
2.56144e-06
5.13769e-06
1.53576e-05
0.000100199
6.66873e-05
1.0317e-05
2.84471e-06
1.38742e-06
9.91356e-07
8.50778e-07
7.78786e-07
7.31305e-07
6.96462e-07
6.70187e-07
6.50123e-07
6.35049e-07
6.2424e-07
6.17241e-07
6.1378e-07
6.13723e-07
6.17068e-07
6.23942e-07
6.34618e-07
6.49567e-07
6.69575e-07
6.95887e-07
7.30935e-07
7.78869e-07
8.51555e-07
9.92869e-07
1.38899e-06
2.84348e-06
1.03086e-05
6.669e-05
4.92332e-05
7.27879e-06
2.05089e-06
1.03859e-06
7.46684e-07
6.38674e-07
5.90032e-07
5.62528e-07
5.44288e-07
5.32365e-07
5.23478e-07
5.16734e-07
5.11882e-07
5.08722e-07
5.07144e-07
5.07094e-07
5.08575e-07
5.11648e-07
5.16439e-07
5.2317e-07
5.32165e-07
5.4417e-07
5.62605e-07
5.90461e-07
6.39497e-07
7.47783e-07
1.03939e-06
2.05001e-06
7.27551e-06
4.92486e-05
3.86394e-05
5.62478e-06
1.63342e-06
8.76339e-07
6.48429e-07
5.59633e-07
5.20583e-07
5.00749e-07
4.8924e-07
4.82076e-07
4.77262e-07
4.73855e-07
4.71472e-07
4.69937e-07
4.69168e-07
4.69132e-07
4.69833e-07
4.71315e-07
4.73675e-07
4.77103e-07
4.81995e-07
4.89276e-07
5.00962e-07
5.2099e-07
5.60126e-07
6.48974e-07
8.76478e-07
1.63243e-06
5.62341e-06
3.86564e-05
3.16396e-05
4.60277e-06
1.39044e-06
7.81199e-07
5.95828e-07
5.22888e-07
4.90312e-07
4.74624e-07
4.66421e-07
4.61787e-07
4.58969e-07
4.57143e-07
4.55936e-07
4.55181e-07
4.54804e-07
4.5478e-07
4.55114e-07
4.55841e-07
4.57045e-07
4.58901e-07
4.61787e-07
4.66518e-07
4.74834e-07
4.90608e-07
5.23187e-07
5.95998e-07
7.80959e-07
1.38944e-06
4.60223e-06
3.16547e-05
2.67595e-05
3.9138e-06
1.23084e-06
7.19036e-07
5.62097e-07
5.01867e-07
4.75098e-07
4.6259e-07
4.56501e-07
4.5338e-07
4.51673e-07
4.50672e-07
4.50057e-07
4.49688e-07
4.49506e-07
4.49492e-07
4.49649e-07
4.50005e-07
4.50625e-07
4.51655e-07
4.53412e-07
4.56595e-07
4.6274e-07
4.75266e-07
5.01983e-07
5.62069e-07
7.18685e-07
1.23009e-06
3.91414e-06
2.67747e-05
2.31979e-05
3.41953e-06
1.11612e-06
6.75067e-07
5.39017e-07
4.88481e-07
4.66488e-07
4.56562e-07
4.52013e-07
4.49881e-07
4.48835e-07
4.48285e-07
4.47973e-07
4.47795e-07
4.47709e-07
4.47701e-07
4.47774e-07
4.47947e-07
4.48266e-07
4.48837e-07
4.49914e-07
4.52077e-07
4.56643e-07
4.66553e-07
4.88487e-07
5.38931e-07
6.74762e-07
1.11568e-06
3.42031e-06
2.32094e-05
2.06006e-05
3.05841e-06
1.03076e-06
6.42896e-07
5.24869e-07
4.8002e-07
4.6134e-07
4.5332e-07
4.49879e-07
4.48407e-07
4.47764e-07
4.47464e-07
4.4731e-07
4.47225e-07
4.47184e-07
4.4718e-07
4.47214e-07
4.47297e-07
4.47457e-07
4.47769e-07
4.48427e-07
4.4991e-07
4.53347e-07
4.6134e-07
4.79965e-07
5.24736e-07
6.42682e-07
1.03059e-06
3.05934e-06
2.06087e-05
1.87045e-05
2.79434e-06
9.66997e-07
6.18403e-07
5.13448e-07
4.74039e-07
4.58026e-07
4.51443e-07
4.48793e-07
4.4776e-07
4.47362e-07
4.47202e-07
4.47129e-07
4.4709e-07
4.4707e-07
4.47068e-07
4.47084e-07
4.47122e-07
4.47199e-07
4.47364e-07
4.47766e-07
4.488e-07
4.51439e-07
4.57997e-07
4.73971e-07
5.13342e-07
6.18291e-07
9.67014e-07
2.79529e-06
1.87102e-05
1.73387e-05
2.6038e-06
9.20275e-07
6.00239e-07
5.04848e-07
4.69686e-07
4.5578e-07
4.50283e-07
4.48196e-07
4.47452e-07
4.47203e-07
4.47122e-07
4.4709e-07
4.47074e-07
4.47065e-07
4.47064e-07
4.4707e-07
4.47085e-07
4.47117e-07
4.472e-07
4.47448e-07
4.48188e-07
4.50265e-07
4.55744e-07
4.69632e-07
5.04786e-07
6.00209e-07
9.20409e-07
2.60471e-06
1.73428e-05
1.63929e-05
2.47163e-06
8.87483e-07
5.87306e-07
4.98741e-07
4.66645e-07
4.54271e-07
4.49552e-07
4.4785e-07
4.47292e-07
4.47133e-07
4.47094e-07
4.47085e-07
4.47081e-07
4.47078e-07
4.47077e-07
4.47078e-07
4.47081e-07
4.47089e-07
4.47126e-07
4.47283e-07
4.47836e-07
4.4953e-07
4.5424e-07
4.6661e-07
4.98715e-07
5.87326e-07
8.87678e-07
2.47249e-06
1.6396e-05
1.57969e-05
2.38822e-06
8.66603e-07
5.78907e-07
4.94818e-07
4.64719e-07
4.53338e-07
4.49116e-07
4.47655e-07
4.47209e-07
4.47099e-07
4.47084e-07
4.47086e-07
4.47087e-07
4.47087e-07
4.47086e-07
4.47084e-07
4.47081e-07
4.47077e-07
4.47091e-07
4.47197e-07
4.47639e-07
4.49095e-07
4.53314e-07
4.64698e-07
4.94814e-07
5.7895e-07
8.66824e-07
2.38903e-06
1.57993e-05
1.55086e-05
2.34786e-06
8.56453e-07
5.74802e-07
4.92904e-07
4.63787e-07
4.52893e-07
4.48912e-07
4.47567e-07
4.47172e-07
4.47085e-07
4.47079e-07
4.47086e-07
4.4709e-07
4.47091e-07
4.4709e-07
4.47088e-07
4.47082e-07
4.47073e-07
4.47076e-07
4.4716e-07
4.47551e-07
4.48893e-07
4.52873e-07
4.63773e-07
4.92909e-07
5.74852e-07
8.56679e-07
2.34864e-06
1.55109e-05
1.55087e-05
2.34787e-06
8.56457e-07
5.74804e-07
4.92905e-07
4.63788e-07
4.52893e-07
4.48913e-07
4.47567e-07
4.47172e-07
4.47085e-07
4.47079e-07
4.47086e-07
4.4709e-07
4.47091e-07
4.4709e-07
4.47088e-07
4.47082e-07
4.47073e-07
4.47077e-07
4.4716e-07
4.47551e-07
4.48894e-07
4.52873e-07
4.63773e-07
4.92908e-07
5.74851e-07
8.56675e-07
2.34864e-06
1.5511e-05
1.57969e-05
2.38825e-06
8.66612e-07
5.78911e-07
4.9482e-07
4.64721e-07
4.53339e-07
4.49117e-07
4.47656e-07
4.47209e-07
4.47099e-07
4.47083e-07
4.47085e-07
4.47086e-07
4.47086e-07
4.47085e-07
4.47084e-07
4.47082e-07
4.47079e-07
4.47093e-07
4.47199e-07
4.47642e-07
4.49097e-07
4.53315e-07
4.64698e-07
4.94811e-07
5.78946e-07
8.66812e-07
2.38905e-06
1.57997e-05
1.6393e-05
2.47169e-06
8.87495e-07
5.8731e-07
4.98743e-07
4.66647e-07
4.54273e-07
4.49553e-07
4.47851e-07
4.47293e-07
4.47132e-07
4.47093e-07
4.47083e-07
4.47078e-07
4.47075e-07
4.47075e-07
4.47077e-07
4.47081e-07
4.47091e-07
4.47129e-07
4.47287e-07
4.4784e-07
4.49533e-07
4.54242e-07
4.66609e-07
4.98711e-07
5.8732e-07
8.8766e-07
2.47253e-06
1.63965e-05
1.73389e-05
2.60388e-06
9.20285e-07
6.0024e-07
5.04848e-07
4.69687e-07
4.55782e-07
4.50286e-07
4.48197e-07
4.47451e-07
4.47201e-07
4.47118e-07
4.47086e-07
4.47069e-07
4.47061e-07
4.4706e-07
4.47068e-07
4.47085e-07
4.47119e-07
4.47203e-07
4.47453e-07
4.48194e-07
4.5027e-07
4.55748e-07
4.69632e-07
5.04781e-07
6.00197e-07
9.20384e-07
2.60476e-06
1.73435e-05
1.87049e-05
2.79444e-06
9.66995e-07
6.18396e-07
5.13444e-07
4.74039e-07
4.58029e-07
4.51446e-07
4.48794e-07
4.47758e-07
4.47358e-07
4.47195e-07
4.4712e-07
4.47081e-07
4.47062e-07
4.47061e-07
4.47078e-07
4.47119e-07
4.47199e-07
4.47367e-07
4.47772e-07
4.48807e-07
4.51447e-07
4.58003e-07
4.73975e-07
5.13339e-07
6.18278e-07
9.66983e-07
2.79534e-06
1.8711e-05
2.06013e-05
3.05854e-06
1.03074e-06
6.42878e-07
5.24863e-07
4.80021e-07
4.61344e-07
4.53323e-07
4.49879e-07
4.48402e-07
4.47755e-07
4.47452e-07
4.47295e-07
4.47209e-07
4.47169e-07
4.47167e-07
4.47204e-07
4.4729e-07
4.47454e-07
4.4777e-07
4.48432e-07
4.49918e-07
4.53357e-07
4.61349e-07
4.79972e-07
5.24737e-07
6.42671e-07
1.03055e-06
3.0594e-06
2.06095e-05
2.31992e-05
3.41967e-06
1.11606e-06
6.75038e-07
5.39014e-07
4.88488e-07
4.66496e-07
4.56567e-07
4.52011e-07
4.49871e-07
4.48819e-07
4.48263e-07
4.47949e-07
4.47771e-07
4.47685e-07
4.4768e-07
4.47757e-07
4.47934e-07
4.48257e-07
4.48834e-07
4.49915e-07
4.52083e-07
4.56652e-07
4.66564e-07
4.88497e-07
5.38935e-07
6.74755e-07
1.11565e-06
3.42037e-06
2.321e-05
2.67613e-05
3.91392e-06
1.23075e-06
7.19004e-07
5.62104e-07
5.01885e-07
4.75114e-07
4.62597e-07
4.56495e-07
4.53362e-07
4.51646e-07
4.50638e-07
4.5002e-07
4.49651e-07
4.49471e-07
4.4946e-07
4.49622e-07
4.49983e-07
4.50609e-07
4.51645e-07
4.53408e-07
4.56596e-07
4.62746e-07
4.75275e-07
5.01993e-07
5.62075e-07
7.1868e-07
1.23006e-06
3.91422e-06
2.67751e-05
3.16419e-05
4.60288e-06
1.39034e-06
7.81188e-07
5.95858e-07
5.22924e-07
4.90335e-07
4.74628e-07
4.66406e-07
4.61757e-07
4.58927e-07
4.57094e-07
4.55884e-07
4.55129e-07
4.54756e-07
4.54736e-07
4.55075e-07
4.55809e-07
4.57019e-07
4.58883e-07
4.61775e-07
4.66511e-07
4.74831e-07
4.90609e-07
5.23191e-07
5.95999e-07
7.80948e-07
1.38939e-06
4.60231e-06
3.1655e-05
3.86422e-05
5.62492e-06
1.63337e-06
8.76388e-07
6.48504e-07
5.59688e-07
5.20608e-07
5.00744e-07
4.89211e-07
4.82031e-07
4.77202e-07
4.73788e-07
4.71403e-07
4.69871e-07
4.69107e-07
4.69076e-07
4.69783e-07
4.71272e-07
4.73639e-07
4.77074e-07
4.81974e-07
4.89259e-07
5.00945e-07
5.20973e-07
5.60113e-07
6.48951e-07
8.76443e-07
1.63236e-06
5.6234e-06
3.86562e-05
4.92361e-05
7.27892e-06
2.05094e-06
1.03873e-06
7.4681e-07
6.38741e-07
5.90044e-07
5.62508e-07
5.44247e-07
5.32313e-07
5.23398e-07
5.1665e-07
5.11801e-07
5.08647e-07
5.07075e-07
5.07031e-07
5.08518e-07
5.11596e-07
5.16393e-07
5.23132e-07
5.32142e-07
5.44148e-07
5.62578e-07
5.90413e-07
6.39433e-07
7.47694e-07
1.03927e-06
2.04984e-06
7.2754e-06
4.92475e-05
6.66894e-05
1.03172e-05
2.84492e-06
1.38768e-06
9.91503e-07
8.5081e-07
7.78739e-07
7.31216e-07
6.96355e-07
6.70077e-07
6.50019e-07
6.34963e-07
6.2417e-07
6.17183e-07
6.13729e-07
6.13677e-07
6.17023e-07
6.23897e-07
6.3457e-07
6.4952e-07
6.69532e-07
6.95842e-07
7.30874e-07
7.78777e-07
8.51418e-07
9.92661e-07
1.38867e-06
2.84306e-06
1.03082e-05
6.66879e-05
0.000100232
1.53794e-05
5.14269e-06
2.56069e-06
1.91098e-06
1.62482e-06
1.44531e-06
1.31609e-06
1.2183e-06
1.14372e-06
1.08722e-06
1.04507e-06
1.01501e-06
9.95682e-07
9.86212e-07
9.8617e-07
9.95547e-07
1.01475e-06
1.04462e-06
1.08653e-06
1.14277e-06
1.21718e-06
1.31494e-06
1.44439e-06
1.62446e-06
1.91134e-06
2.56087e-06
5.13688e-06
1.53576e-05
0.000100197
0.000150934
3.25732e-05
1.39324e-05
9.32032e-06
7.19214e-06
5.96085e-06
5.12368e-06
4.51212e-06
4.05436e-06
3.71196e-06
3.45652e-06
3.26773e-06
3.13464e-06
3.04991e-06
3.00877e-06
3.00891e-06
3.05031e-06
3.13526e-06
3.26846e-06
3.45714e-06
3.71217e-06
4.05432e-06
4.5118e-06
5.12307e-06
5.95986e-06
7.19029e-06
9.31582e-06
1.39205e-05
3.2541e-05
0.000150842
0.00152714
0.000224747
0.000110873
7.00881e-05
5.20146e-05
4.17281e-05
3.50212e-05
3.03781e-05
2.70403e-05
2.4596e-05
2.27862e-05
2.14532e-05
2.05213e-05
1.99311e-05
1.96454e-05
1.96466e-05
1.99348e-05
2.05276e-05
2.14623e-05
2.2798e-05
2.4608e-05
2.70547e-05
3.03954e-05
3.50411e-05
4.17496e-05
5.2034e-05
7.00957e-05
0.000110843
0.000224611
0.0015261
0.00112269
0.000168893
8.89631e-05
5.87578e-05
4.55276e-05
3.78027e-05
3.26738e-05
2.90542e-05
2.63667e-05
2.43728e-05
2.29183e-05
2.18896e-05
2.11703e-05
2.07113e-05
2.04866e-05
2.04843e-05
2.07042e-05
2.1158e-05
2.18713e-05
2.28938e-05
2.43482e-05
2.63352e-05
2.90126e-05
3.26074e-05
3.77283e-05
4.54606e-05
5.87282e-05
8.90385e-05
0.000169286
0.00112577
0.000106996
3.0826e-05
2.03467e-05
1.43231e-05
1.14883e-05
9.6469e-06
8.28868e-06
7.2887e-06
6.52015e-06
5.93197e-06
5.49369e-06
5.17956e-06
4.96349e-06
4.82754e-06
4.76155e-06
4.76092e-06
4.82573e-06
4.96076e-06
5.17647e-06
5.4912e-06
5.93088e-06
6.52006e-06
7.28931e-06
8.29064e-06
9.65469e-06
1.15041e-05
1.43526e-05
2.04016e-05
3.0977e-05
0.000107327
8.3838e-05
2.22524e-05
1.13724e-05
5.8339e-06
3.74543e-06
2.89051e-06
2.41844e-06
2.09708e-06
1.86188e-06
1.68684e-06
1.55841e-06
1.46739e-06
1.40543e-06
1.36683e-06
1.34834e-06
1.34848e-06
1.36728e-06
1.40632e-06
1.46904e-06
1.56172e-06
1.6917e-06
1.86802e-06
2.10366e-06
2.42403e-06
2.89296e-06
3.74304e-06
5.83179e-06
1.14005e-05
2.23627e-05
8.39807e-05
5.75324e-05
1.62217e-05
6.54834e-06
2.83616e-06
1.58031e-06
1.15968e-06
9.82864e-07
8.81453e-07
8.10618e-07
7.5784e-07
7.18544e-07
6.9e-07
6.70249e-07
6.57889e-07
6.51995e-07
6.52146e-07
6.58353e-07
6.71063e-07
6.91209e-07
7.20212e-07
7.59831e-07
8.12645e-07
8.83001e-07
9.82964e-07
1.15696e-06
1.57378e-06
2.82789e-06
6.56273e-06
1.62847e-05
5.75474e-05
4.44406e-05
1.15611e-05
4.12198e-06
1.7019e-06
9.63243e-07
7.07566e-07
6.05968e-07
5.56232e-07
5.24979e-07
5.01433e-07
4.84198e-07
4.718e-07
4.63297e-07
4.58167e-07
4.5579e-07
4.5594e-07
4.58611e-07
4.63995e-07
4.72614e-07
4.85119e-07
5.02248e-07
5.25568e-07
5.56226e-07
6.04953e-07
7.05051e-07
9.59201e-07
1.69882e-06
4.1319e-06
1.15921e-05
4.44069e-05
3.63722e-05
8.75299e-06
2.84422e-06
1.21247e-06
7.27609e-07
5.5149e-07
4.74458e-07
4.39144e-07
4.20546e-07
4.08657e-07
4.00323e-07
3.94394e-07
3.90326e-07
3.87826e-07
3.86681e-07
3.86785e-07
3.88126e-07
3.90773e-07
3.94913e-07
4.00828e-07
4.08999e-07
4.20543e-07
4.38592e-07
4.73362e-07
5.49879e-07
7.25926e-07
1.21243e-06
2.85263e-06
8.7675e-06
3.63291e-05
3.08285e-05
6.99206e-06
2.14313e-06
9.59265e-07
6.12493e-07
4.7814e-07
4.1954e-07
3.91799e-07
3.77705e-07
3.69788e-07
3.64864e-07
3.61615e-07
3.59475e-07
3.5818e-07
3.57597e-07
3.57662e-07
3.58364e-07
3.59738e-07
3.61898e-07
3.65083e-07
3.69837e-07
3.7747e-07
3.91214e-07
4.18677e-07
4.77326e-07
6.12153e-07
9.60485e-07
2.14964e-06
6.99743e-06
3.08001e-05
2.69185e-05
5.85224e-06
1.73762e-06
8.14773e-07
5.46384e-07
4.39829e-07
3.92617e-07
3.69715e-07
3.58139e-07
3.52044e-07
3.48648e-07
3.46645e-07
3.45434e-07
3.44741e-07
3.4444e-07
3.44478e-07
3.44846e-07
3.45576e-07
3.46779e-07
3.48715e-07
3.51981e-07
3.57899e-07
3.69306e-07
3.92152e-07
4.3955e-07
5.46642e-07
8.16167e-07
1.74208e-06
5.85367e-06
2.68912e-05
2.41837e-05
5.08828e-06
1.48997e-06
7.26673e-07
5.04678e-07
4.17078e-07
3.77646e-07
3.58341e-07
3.48601e-07
3.43629e-07
3.41053e-07
3.39685e-07
3.38944e-07
3.38557e-07
3.38398e-07
3.38419e-07
3.38612e-07
3.39015e-07
3.3974e-07
3.41059e-07
3.43556e-07
3.48441e-07
3.58134e-07
3.77495e-07
4.17144e-07
5.05106e-07
7.27774e-07
1.49259e-06
5.08753e-06
2.41644e-05
2.21539e-05
4.55697e-06
1.32975e-06
6.69334e-07
4.75691e-07
4.01994e-07
3.68424e-07
3.51953e-07
3.43684e-07
3.39543e-07
3.37488e-07
3.36476e-07
3.3598e-07
3.35746e-07
3.35658e-07
3.35669e-07
3.35775e-07
3.36014e-07
3.36498e-07
3.37481e-07
3.39498e-07
3.43612e-07
3.51895e-07
3.68457e-07
4.02218e-07
4.76197e-07
6.70055e-07
1.33096e-06
4.55517e-06
2.21409e-05
2.064e-05
4.17989e-06
1.22177e-06
6.30688e-07
4.57532e-07
3.9196e-07
3.62435e-07
3.48103e-07
3.40997e-07
3.37498e-07
3.3581e-07
3.35016e-07
3.34652e-07
3.34494e-07
3.34438e-07
3.34444e-07
3.34509e-07
3.3467e-07
3.35028e-07
3.35809e-07
3.37485e-07
3.40987e-07
3.48127e-07
3.62539e-07
3.92192e-07
4.57904e-07
6.31066e-07
1.22204e-06
4.17764e-06
2.06313e-05
1.95288e-05
3.91305e-06
1.14778e-06
6.04016e-07
4.45191e-07
3.85168e-07
3.58443e-07
3.45669e-07
3.3944e-07
3.36428e-07
3.35004e-07
3.34352e-07
3.34063e-07
3.33942e-07
3.339e-07
3.33903e-07
3.33951e-07
3.34074e-07
3.34362e-07
3.35013e-07
3.36437e-07
3.39463e-07
3.45723e-07
3.58551e-07
3.85341e-07
4.45408e-07
6.04153e-07
1.14752e-06
3.91073e-06
1.95229e-05
1.87474e-05
3.73024e-06
1.09808e-06
5.85835e-07
4.36789e-07
3.80583e-07
3.55791e-07
3.44108e-07
3.38505e-07
3.35842e-07
3.34603e-07
3.34043e-07
3.33797e-07
3.33695e-07
3.33659e-07
3.33661e-07
3.33701e-07
3.33807e-07
3.34055e-07
3.34618e-07
3.35863e-07
3.3854e-07
3.44164e-07
3.55876e-07
3.80691e-07
4.36887e-07
5.85824e-07
1.09755e-06
3.728e-06
1.87432e-05
1.82492e-05
3.61573e-06
1.06731e-06
5.74324e-07
4.31478e-07
3.77704e-07
3.54145e-07
3.4316e-07
3.37961e-07
3.35522e-07
3.34401e-07
3.33897e-07
3.33676e-07
3.33583e-07
3.33549e-07
3.33551e-07
3.33588e-07
3.33685e-07
3.3391e-07
3.34418e-07
3.35547e-07
3.37996e-07
3.4321e-07
3.54207e-07
3.77765e-07
4.31503e-07
5.74228e-07
1.06666e-06
3.61361e-06
1.82459e-05
1.80065e-05
3.5605e-06
1.05254e-06
5.68772e-07
4.289e-07
3.76308e-07
3.53351e-07
3.42708e-07
3.37706e-07
3.35377e-07
3.34313e-07
3.33837e-07
3.33628e-07
3.33538e-07
3.33505e-07
3.33507e-07
3.33543e-07
3.33636e-07
3.3385e-07
3.34332e-07
3.35402e-07
3.3774e-07
3.42752e-07
3.53399e-07
3.76347e-07
4.28894e-07
5.68648e-07
1.05189e-06
3.55852e-06
1.80037e-05
1.80067e-05
3.56056e-06
1.05256e-06
5.68773e-07
4.28898e-07
3.76306e-07
3.53349e-07
3.42706e-07
3.37704e-07
3.35376e-07
3.34313e-07
3.33837e-07
3.33627e-07
3.33537e-07
3.33505e-07
3.33506e-07
3.33542e-07
3.33635e-07
3.33848e-07
3.34329e-07
3.354e-07
3.37737e-07
3.42749e-07
3.53397e-07
3.76347e-07
4.28899e-07
5.68661e-07
1.05194e-06
3.55864e-06
1.80037e-05
1.82497e-05
3.61595e-06
1.06735e-06
5.7433e-07
4.31476e-07
3.77699e-07
3.54139e-07
3.43155e-07
3.37956e-07
3.35518e-07
3.34398e-07
3.33896e-07
3.33675e-07
3.33582e-07
3.33548e-07
3.33549e-07
3.33586e-07
3.33682e-07
3.33905e-07
3.34412e-07
3.35539e-07
3.37988e-07
3.43201e-07
3.542e-07
3.77764e-07
4.31515e-07
5.74266e-07
1.06681e-06
3.61399e-06
1.82461e-05
1.87483e-05
3.73062e-06
1.09818e-06
5.85852e-07
4.3679e-07
3.80577e-07
3.55783e-07
3.441e-07
3.38498e-07
3.35837e-07
3.34601e-07
3.34042e-07
3.33797e-07
3.33695e-07
3.33658e-07
3.3366e-07
3.33698e-07
3.33802e-07
3.34047e-07
3.34608e-07
3.3585e-07
3.38525e-07
3.44149e-07
3.55863e-07
3.80686e-07
4.36902e-07
5.85882e-07
1.09779e-06
3.72862e-06
1.87436e-05
1.95301e-05
3.91364e-06
1.14796e-06
6.04052e-07
4.45201e-07
3.85166e-07
3.58436e-07
3.4566e-07
3.39433e-07
3.36424e-07
3.35004e-07
3.34354e-07
3.34066e-07
3.33945e-07
3.33903e-07
3.33904e-07
3.33949e-07
3.34069e-07
3.34354e-07
3.35e-07
3.36421e-07
3.39443e-07
3.45701e-07
3.5853e-07
3.85329e-07
4.45418e-07
6.0422e-07
1.14785e-06
3.91162e-06
1.95237e-05
2.06415e-05
4.18072e-06
1.22209e-06
6.30762e-07
4.57561e-07
3.91965e-07
3.62429e-07
3.48096e-07
3.40992e-07
3.37499e-07
3.35816e-07
3.35025e-07
3.34664e-07
3.34506e-07
3.34448e-07
3.34451e-07
3.34513e-07
3.34669e-07
3.35022e-07
3.35798e-07
3.37469e-07
3.40965e-07
3.48101e-07
3.62511e-07
3.9217e-07
4.57907e-07
6.31144e-07
1.2225e-06
4.17887e-06
2.06326e-05
2.21555e-05
4.5581e-06
1.33027e-06
6.69465e-07
4.75744e-07
4.02008e-07
3.68422e-07
3.51949e-07
3.43686e-07
3.39553e-07
3.37506e-07
3.36499e-07
3.36006e-07
3.35771e-07
3.35681e-07
3.35687e-07
3.35788e-07
3.36021e-07
3.36499e-07
3.37476e-07
3.39486e-07
3.43594e-07
3.5187e-07
3.68427e-07
4.02191e-07
4.76193e-07
6.7014e-07
1.33152e-06
4.55676e-06
2.21429e-05
2.41854e-05
5.08984e-06
1.49078e-06
7.26881e-07
5.04747e-07
4.17096e-07
3.77645e-07
3.58343e-07
3.48616e-07
3.43658e-07
3.41093e-07
3.39731e-07
3.38993e-07
3.38604e-07
3.38442e-07
3.38457e-07
3.38643e-07
3.39037e-07
3.39755e-07
3.41066e-07
3.43556e-07
3.48434e-07
3.5812e-07
3.77473e-07
4.17122e-07
5.05113e-07
7.2787e-07
1.49326e-06
5.08955e-06
2.41676e-05
2.692e-05
5.85444e-06
1.73883e-06
8.15065e-07
5.46461e-07
4.3984e-07
3.92616e-07
3.69731e-07
3.5818e-07
3.52106e-07
3.48723e-07
3.46727e-07
3.45519e-07
3.44823e-07
3.44516e-07
3.44545e-07
3.44903e-07
3.45622e-07
3.46815e-07
3.48744e-07
3.52004e-07
3.57917e-07
3.69319e-07
3.92157e-07
4.39551e-07
5.46665e-07
8.163e-07
1.74293e-06
5.85624e-06
2.68961e-05
3.08305e-05
6.99526e-06
2.14486e-06
9.59607e-07
6.12542e-07
4.78131e-07
4.19546e-07
3.91848e-07
3.77793e-07
3.69903e-07
3.64994e-07
3.61752e-07
3.59612e-07
3.58313e-07
3.5772e-07
3.57773e-07
3.5846e-07
3.5982e-07
3.61966e-07
3.65143e-07
3.69893e-07
3.77528e-07
3.91273e-07
4.18734e-07
4.77376e-07
6.12227e-07
9.60728e-07
2.15095e-06
7.00113e-06
3.08068e-05
3.63766e-05
8.75876e-06
2.84655e-06
1.2128e-06
7.27603e-07
5.51468e-07
4.745e-07
4.39265e-07
4.20718e-07
4.08854e-07
4.00533e-07
3.94606e-07
3.90538e-07
3.8803e-07
3.8687e-07
3.86958e-07
3.8828e-07
3.90907e-07
3.95027e-07
4.0093e-07
4.09098e-07
4.20652e-07
4.38718e-07
4.73488e-07
5.50024e-07
7.26139e-07
1.21292e-06
2.85475e-06
8.77397e-06
3.63428e-05
4.4449e-05
1.15687e-05
4.12476e-06
1.70221e-06
9.63207e-07
7.07608e-07
6.06127e-07
5.5648e-07
5.25264e-07
5.01726e-07
4.84511e-07
4.72103e-07
4.63612e-07
4.58465e-07
4.56065e-07
4.56194e-07
4.58845e-07
4.64207e-07
4.72792e-07
4.85279e-07
5.02393e-07
5.25727e-07
5.56425e-07
6.05201e-07
7.05399e-07
9.5977e-07
1.69993e-06
4.13498e-06
1.15992e-05
4.44263e-05
5.75493e-05
1.62327e-05
6.5524e-06
2.83693e-06
1.58056e-06
1.16011e-06
9.83449e-07
8.82091e-07
8.11241e-07
7.58429e-07
7.19076e-07
6.90448e-07
6.70644e-07
6.58246e-07
6.52326e-07
6.5246e-07
6.58658e-07
6.71365e-07
6.91521e-07
7.20518e-07
7.60133e-07
8.12971e-07
8.83422e-07
9.83556e-07
1.15781e-06
1.57515e-06
2.83101e-06
6.56814e-06
1.62925e-05
5.75732e-05
8.38729e-05
2.2267e-05
1.13777e-05
5.83619e-06
3.74749e-06
2.89266e-06
2.42059e-06
2.09905e-06
1.86365e-06
1.68838e-06
1.55968e-06
1.4682e-06
1.40613e-06
1.36748e-06
1.34897e-06
1.34911e-06
1.36793e-06
1.40702e-06
1.47002e-06
1.56277e-06
1.69277e-06
1.86915e-06
2.10509e-06
2.42605e-06
2.89552e-06
3.74645e-06
5.83649e-06
1.14067e-05
2.23673e-05
8.40112e-05
0.000107043
3.08413e-05
2.03529e-05
1.4329e-05
1.14929e-05
9.65023e-06
8.29072e-06
7.29035e-06
6.52169e-06
5.93339e-06
5.49477e-06
5.18039e-06
4.9643e-06
4.82843e-06
4.76258e-06
4.76212e-06
4.82713e-06
4.9624e-06
5.17841e-06
5.49342e-06
5.93338e-06
6.52279e-06
7.29264e-06
8.29558e-06
9.66061e-06
1.15107e-05
1.43599e-05
2.041e-05
3.09838e-05
0.000107363
0.00112301
0.000168926
8.8965e-05
5.87515e-05
4.55191e-05
3.77942e-05
3.26666e-05
2.90503e-05
2.6364e-05
2.43706e-05
2.29146e-05
2.18863e-05
2.11676e-05
2.07091e-05
2.04848e-05
2.04829e-05
2.07032e-05
2.11573e-05
2.18711e-05
2.28944e-05
2.43505e-05
2.63386e-05
2.90173e-05
3.26152e-05
3.77389e-05
4.54737e-05
5.87432e-05
8.90565e-05
0.000169306
0.00112593
0.000943163
0.000139601
7.55551e-05
5.10382e-05
4.02205e-05
3.37675e-05
2.93641e-05
2.62162e-05
2.394e-05
2.22477e-05
2.09761e-05
2.00286e-05
1.93639e-05
1.89426e-05
1.874e-05
1.87443e-05
1.89558e-05
1.93864e-05
2.00612e-05
2.10196e-05
2.22995e-05
2.40039e-05
2.62938e-05
2.94664e-05
3.38729e-05
4.03075e-05
5.10707e-05
7.54525e-05
0.000139055
0.000938708
9.21392e-05
3.33663e-05
2.20261e-05
1.6604e-05
1.40249e-05
1.24854e-05
1.13195e-05
1.03153e-05
9.44053e-06
8.70412e-06
8.11186e-06
7.65736e-06
7.33083e-06
7.12131e-06
7.01992e-06
7.02189e-06
7.12699e-06
7.33953e-06
7.66794e-06
8.12267e-06
8.71349e-06
9.44771e-06
1.03198e-05
1.13184e-05
1.24714e-05
1.39962e-05
1.65574e-05
2.19463e-05
3.30372e-05
9.16293e-05
7.26472e-05
2.21337e-05
1.34101e-05
8.50315e-06
6.06052e-06
4.77182e-06
3.99172e-06
3.44912e-06
3.04446e-06
2.73187e-06
2.49353e-06
2.31767e-06
2.1951e-06
2.11808e-06
2.08104e-06
2.08115e-06
2.11827e-06
2.195e-06
2.31662e-06
2.49036e-06
2.7263e-06
3.03673e-06
3.44067e-06
3.98484e-06
4.77154e-06
6.06747e-06
8.5075e-06
1.33652e-05
2.19809e-05
7.24093e-05
5.02678e-05
1.77422e-05
9.24264e-06
4.93018e-06
2.8415e-06
1.89753e-06
1.46772e-06
1.23761e-06
1.09439e-06
9.90845e-07
9.14021e-07
8.58335e-07
8.19876e-07
7.95737e-07
7.84082e-07
7.83951e-07
7.95313e-07
8.19078e-07
8.57082e-07
9.12205e-07
9.88607e-07
1.09228e-06
1.23637e-06
1.47033e-06
1.91094e-06
2.86684e-06
4.94682e-06
9.21181e-06
1.7639e-05
5.02121e-05
3.89281e-05
1.37047e-05
6.53358e-06
3.03478e-06
1.52945e-06
9.52246e-07
7.22407e-07
6.17539e-07
5.60109e-07
5.2211e-07
4.94977e-07
4.75531e-07
4.61833e-07
4.52676e-07
4.48127e-07
4.47952e-07
4.5216e-07
4.61048e-07
4.74804e-07
4.9417e-07
5.21329e-07
5.59756e-07
6.18258e-07
7.25574e-07
9.62782e-07
1.54641e-06
3.04586e-06
6.5105e-06
1.36494e-05
3.89548e-05
3.20175e-05
1.12351e-05
4.66147e-06
1.95829e-06
9.76951e-07
6.26108e-07
4.87771e-07
4.23396e-07
3.88952e-07
3.68286e-07
3.5457e-07
3.45105e-07
3.38669e-07
3.34711e-07
3.32763e-07
3.3262e-07
3.34319e-07
3.38184e-07
3.44586e-07
3.541e-07
3.68042e-07
3.89247e-07
4.24618e-07
4.89993e-07
6.30143e-07
9.83694e-07
1.95984e-06
4.64356e-06
1.12113e-05
3.2072e-05
2.74239e-05
9.44451e-06
3.44489e-06
1.37365e-06
7.19051e-07
4.89062e-07
3.91203e-07
3.45907e-07
3.23089e-07
3.10185e-07
3.02186e-07
2.96943e-07
2.93502e-07
2.91407e-07
2.90376e-07
2.90281e-07
2.91147e-07
2.93152e-07
2.96587e-07
3.01945e-07
3.10221e-07
3.23606e-07
3.47046e-07
3.92769e-07
4.90648e-07
7.20242e-07
1.37212e-06
3.43337e-06
9.43709e-06
2.74706e-05
2.41637e-05
8.07111e-06
2.6889e-06
1.06219e-06
5.84837e-07
4.16246e-07
3.44311e-07
3.11301e-07
2.94519e-07
2.85278e-07
2.79839e-07
2.76476e-07
2.7437e-07
2.73118e-07
2.72508e-07
2.7245e-07
2.72961e-07
2.74163e-07
2.76291e-07
2.7977e-07
2.85427e-07
2.94974e-07
3.12054e-07
3.45198e-07
4.16878e-07
5.8475e-07
1.0604e-06
2.6817e-06
8.06998e-06
2.42047e-05
2.17265e-05
7.00243e-06
2.20308e-06
8.7949e-07
5.08905e-07
3.74111e-07
3.19036e-07
2.93482e-07
2.80473e-07
2.73437e-07
2.6945e-07
2.67106e-07
2.65708e-07
2.64906e-07
2.64523e-07
2.6449e-07
2.64816e-07
2.65596e-07
2.67021e-07
2.69449e-07
2.73571e-07
2.80758e-07
2.93863e-07
3.19356e-07
3.74141e-07
5.08469e-07
8.78161e-07
2.19913e-06
7.00524e-06
2.17569e-05
1.99307e-05
6.19237e-06
1.88094e-06
7.65987e-07
4.5935e-07
3.48569e-07
3.04192e-07
2.83488e-07
2.7301e-07
2.67449e-07
2.64399e-07
2.62684e-07
2.61708e-07
2.6117e-07
2.6092e-07
2.60901e-07
2.6112e-07
2.61649e-07
2.62643e-07
2.64406e-07
2.67521e-07
2.73135e-07
2.83604e-07
3.04181e-07
3.48287e-07
4.58764e-07
7.65203e-07
1.87943e-06
6.1974e-06
1.99524e-05
1.86082e-05
5.59305e-06
1.66341e-06
6.93213e-07
4.27387e-07
3.33175e-07
2.95242e-07
2.77657e-07
2.68872e-07
2.6431e-07
2.61888e-07
2.60581e-07
2.59871e-07
2.59495e-07
2.59326e-07
2.59315e-07
2.59466e-07
2.59836e-07
2.60555e-07
2.61882e-07
2.64326e-07
2.6889e-07
2.77631e-07
2.95105e-07
3.32872e-07
4.26978e-07
6.92883e-07
1.66355e-06
5.59908e-06
1.86236e-05
1.76486e-05
5.16288e-06
1.51783e-06
6.45623e-07
4.06679e-07
3.23481e-07
2.89762e-07
2.74203e-07
2.66534e-07
2.62636e-07
2.60628e-07
2.59585e-07
2.59042e-07
2.58765e-07
2.58644e-07
2.58637e-07
2.58747e-07
2.59017e-07
2.59561e-07
2.60608e-07
2.62616e-07
2.66498e-07
2.74125e-07
2.89614e-07
3.23259e-07
4.0646e-07
6.45568e-07
1.51857e-06
5.16888e-06
1.76596e-05
1.698e-05
4.86821e-06
1.42267e-06
6.15043e-07
3.93407e-07
3.17364e-07
2.86406e-07
2.72163e-07
2.65214e-07
2.61743e-07
2.59997e-07
2.59118e-07
2.58675e-07
2.58457e-07
2.58365e-07
2.5836e-07
2.58443e-07
2.58655e-07
2.59093e-07
2.59968e-07
2.61706e-07
2.6516e-07
2.7208e-07
2.86288e-07
3.17228e-07
3.93322e-07
6.15131e-07
1.4236e-06
4.87368e-06
1.6988e-05
1.6557e-05
4.68489e-06
1.36496e-06
5.96912e-07
3.8549e-07
3.13737e-07
2.84462e-07
2.7102e-07
2.64504e-07
2.61285e-07
2.59692e-07
2.58906e-07
2.58519e-07
2.58333e-07
2.58256e-07
2.58252e-07
2.58322e-07
2.58501e-07
2.58881e-07
2.5966e-07
2.61242e-07
2.64447e-07
2.70945e-07
2.84375e-07
3.13662e-07
3.85479e-07
5.9706e-07
1.36586e-06
4.68955e-06
1.65628e-05
1.63525e-05
4.59901e-06
1.33803e-06
5.88436e-07
3.81787e-07
3.12046e-07
2.83569e-07
2.70507e-07
2.64195e-07
2.61093e-07
2.5957e-07
2.58826e-07
2.58464e-07
2.58291e-07
2.5822e-07
2.58217e-07
2.58281e-07
2.58447e-07
2.58802e-07
2.59538e-07
2.61051e-07
2.6414e-07
2.70441e-07
2.835e-07
3.11998e-07
3.81801e-07
5.88572e-07
1.33869e-06
4.602e-06
1.6357e-05
1.6352e-05
4.59878e-06
1.33801e-06
5.88439e-07
3.81794e-07
3.12055e-07
2.83577e-07
2.70515e-07
2.64202e-07
2.61099e-07
2.59575e-07
2.5883e-07
2.58468e-07
2.58295e-07
2.58224e-07
2.58221e-07
2.58286e-07
2.58452e-07
2.58808e-07
2.59545e-07
2.61059e-07
2.6415e-07
2.70451e-07
2.83511e-07
3.12006e-07
3.81804e-07
5.88563e-07
1.33862e-06
4.60166e-06
1.63566e-05
1.65552e-05
4.68385e-06
1.36482e-06
5.96913e-07
3.85509e-07
3.13763e-07
2.84488e-07
2.71043e-07
2.64524e-07
2.61302e-07
2.59706e-07
2.58918e-07
2.5853e-07
2.58344e-07
2.58267e-07
2.58264e-07
2.58335e-07
2.58517e-07
2.589e-07
2.59682e-07
2.61268e-07
2.64476e-07
2.70977e-07
2.84407e-07
3.13688e-07
3.85488e-07
5.97031e-07
1.36561e-06
4.68817e-06
1.65614e-05
1.69771e-05
4.86641e-06
1.42242e-06
6.1504e-07
3.93436e-07
3.17405e-07
2.86448e-07
2.72201e-07
2.65247e-07
2.6177e-07
2.60019e-07
2.59137e-07
2.58692e-07
2.58473e-07
2.58382e-07
2.58379e-07
2.58465e-07
2.58681e-07
2.59124e-07
2.60004e-07
2.61748e-07
2.65208e-07
2.72134e-07
2.86345e-07
3.17279e-07
3.93345e-07
6.1509e-07
1.42317e-06
4.8713e-06
1.69853e-05
1.76444e-05
5.16024e-06
1.51743e-06
6.4561e-07
4.06714e-07
3.23533e-07
2.89816e-07
2.74252e-07
2.66576e-07
2.6267e-07
2.60655e-07
2.59607e-07
2.59061e-07
2.58784e-07
2.58665e-07
2.58661e-07
2.58775e-07
2.59051e-07
2.59601e-07
2.60656e-07
2.62672e-07
2.66564e-07
2.74202e-07
2.89699e-07
3.2334e-07
4.06511e-07
6.45536e-07
1.51797e-06
5.1654e-06
1.76554e-05
1.86028e-05
5.58947e-06
1.66247e-06
6.93163e-07
4.27418e-07
3.33232e-07
2.95304e-07
2.77714e-07
2.68919e-07
2.64346e-07
2.61915e-07
2.60602e-07
2.59889e-07
2.59513e-07
2.59347e-07
2.59341e-07
2.59498e-07
2.59875e-07
2.60601e-07
2.61937e-07
2.64392e-07
2.68969e-07
2.77725e-07
2.95215e-07
3.3299e-07
4.27068e-07
6.92854e-07
1.66234e-06
5.59437e-06
1.86175e-05
1.99242e-05
6.1879e-06
1.87963e-06
7.65889e-07
4.59366e-07
3.48621e-07
3.04254e-07
2.83546e-07
2.73055e-07
2.67479e-07
2.64418e-07
2.62697e-07
2.61719e-07
2.61182e-07
2.60937e-07
2.60924e-07
2.61151e-07
2.61688e-07
2.6269e-07
2.64462e-07
2.67587e-07
2.73213e-07
2.837e-07
3.043e-07
3.48429e-07
4.58897e-07
7.65219e-07
1.87804e-06
6.19161e-06
1.9944e-05
2.17189e-05
6.99703e-06
2.20129e-06
8.79291e-07
5.089e-07
3.74151e-07
3.19095e-07
2.93532e-07
2.80504e-07
2.73451e-07
2.69451e-07
2.671e-07
2.65701e-07
2.64902e-07
2.64526e-07
2.64501e-07
2.64839e-07
2.65629e-07