/*--------------------------------*- C++ -*----------------------------------*\
| =========                 |                                                 |
| \\      /  F ield         | OpenFOAM: The Open Source CFD Toolbox           |
|  \\    /   O peration     | Version:  2312                                  |
|   \\  /    A nd           | Website:  www.openfoam.com                      |
|    \\/     M anipulation  |                                                 |
\*---------------------------------------------------------------------------*/
FoamFile
{
    version     2.0;
    format      ascii;
    arch        "LSB;label=32;scalar=64";
    class       volScalarField;
    location    "550";
    object      k;
}
// * * * * * * * * * * * * * * * * * * * * * * * * * * * * * * * * * * * * * //

dimensions      [0 2 -2 0 0 0 0];

internalField   nonuniform List<scalar> 
27000
(
0.000258891
0.00012938
0.000107383
9.56085e-05
9.01063e-05
8.6678e-05
8.40647e-05
8.17775e-05
7.98721e-05
7.83224e-05
7.70503e-05
7.60152e-05
7.52471e-05
7.47421e-05
7.44934e-05
7.44971e-05
7.47534e-05
7.52662e-05
7.6042e-05
7.70837e-05
7.83545e-05
7.99084e-05
8.18178e-05
8.4107e-05
8.67187e-05
9.01392e-05
9.56237e-05
0.000107368
0.000129325
0.000258764
9.81941e-05
2.152e-05
2.82585e-05
3.06564e-05
3.2426e-05
3.35897e-05
3.4326e-05
3.47617e-05
3.49956e-05
3.51321e-05
3.52205e-05
3.52783e-05
3.53157e-05
3.53384e-05
3.53493e-05
3.53496e-05
3.53391e-05
3.53167e-05
3.52794e-05
3.52212e-05
3.51319e-05
3.49949e-05
3.47602e-05
3.43237e-05
3.35871e-05
3.24225e-05
3.0651e-05
2.8248e-05
2.15052e-05
9.81572e-05
0.00010136
3.49073e-05
2.88222e-05
2.72842e-05
2.79842e-05
2.88962e-05
2.96704e-05
3.03148e-05
3.08139e-05
3.11955e-05
3.14883e-05
3.17096e-05
3.18685e-05
3.19708e-05
3.20203e-05
3.20187e-05
3.19661e-05
3.18607e-05
3.16991e-05
3.1476e-05
3.11823e-05
3.08014e-05
3.03049e-05
2.96657e-05
2.8899e-05
2.79938e-05
2.72973e-05
2.88209e-05
3.48691e-05
0.000101337
9.49059e-05
3.52483e-05
2.87258e-05
2.85046e-05
2.93658e-05
3.01861e-05
3.08383e-05
3.13519e-05
3.17527e-05
3.20596e-05
3.22936e-05
3.24691e-05
3.25949e-05
3.26758e-05
3.27145e-05
3.27126e-05
3.267e-05
3.25858e-05
3.24575e-05
3.2281e-05
3.20481e-05
3.17449e-05
3.13503e-05
3.08453e-05
3.02028e-05
2.93901e-05
2.85291e-05
2.87344e-05
3.52316e-05
9.49085e-05
9.03527e-05
3.42169e-05
2.90119e-05
2.96735e-05
3.06701e-05
3.14311e-05
3.19859e-05
3.23947e-05
3.26992e-05
3.29249e-05
3.30923e-05
3.3215e-05
3.33014e-05
3.33564e-05
3.33824e-05
3.33806e-05
3.33513e-05
3.32938e-05
3.32059e-05
3.30835e-05
3.29188e-05
3.26982e-05
3.2401e-05
3.20007e-05
3.14534e-05
3.06952e-05
2.96939e-05
2.90177e-05
3.4209e-05
9.0372e-05
8.66444e-05
3.39259e-05
2.94457e-05
3.04748e-05
3.15272e-05
3.22585e-05
3.27552e-05
3.30958e-05
3.33317e-05
3.3496e-05
3.36106e-05
3.36903e-05
3.37441e-05
3.37773e-05
3.37926e-05
3.37913e-05
3.37736e-05
3.37387e-05
3.36845e-05
3.36061e-05
3.34948e-05
3.33357e-05
3.31061e-05
3.27716e-05
3.22786e-05
3.15463e-05
3.04867e-05
2.94467e-05
3.39217e-05
8.66706e-05
8.34728e-05
3.39659e-05
3.00989e-05
3.11287e-05
3.21248e-05
3.28038e-05
3.32491e-05
3.35369e-05
3.37208e-05
3.38375e-05
3.3911e-05
3.39572e-05
3.39856e-05
3.40019e-05
3.40089e-05
3.40081e-05
3.39995e-05
3.39824e-05
3.39542e-05
3.39098e-05
3.38393e-05
3.37269e-05
3.35473e-05
3.32627e-05
3.28178e-05
3.21353e-05
3.11319e-05
3.00937e-05
3.39625e-05
8.35002e-05
8.07063e-05
3.41083e-05
3.07557e-05
3.1689e-05
3.25784e-05
3.318e-05
3.3566e-05
3.38037e-05
3.39438e-05
3.40227e-05
3.40648e-05
3.40861e-05
3.40962e-05
3.41004e-05
3.41017e-05
3.41012e-05
3.40991e-05
3.40946e-05
3.40851e-05
3.40654e-05
3.40257e-05
3.39497e-05
3.38119e-05
3.35751e-05
3.31875e-05
3.25816e-05
3.16861e-05
3.07484e-05
3.41069e-05
8.07379e-05
7.81914e-05
3.42504e-05
3.13009e-05
3.21415e-05
3.29263e-05
3.3447e-05
3.37711e-05
3.39601e-05
3.40618e-05
3.41103e-05
3.41292e-05
3.41332e-05
3.41311e-05
3.41278e-05
3.41255e-05
3.41252e-05
3.41271e-05
3.41305e-05
3.41332e-05
3.41304e-05
3.41132e-05
3.40662e-05
3.39654e-05
3.37758e-05
3.34495e-05
3.29249e-05
3.21361e-05
3.1294e-05
3.42507e-05
7.82179e-05
7.60584e-05
3.43717e-05
3.17337e-05
3.24947e-05
3.31882e-05
3.36373e-05
3.39042e-05
3.40493e-05
3.41181e-05
3.41429e-05
3.41452e-05
3.41381e-05
3.4129e-05
3.41216e-05
3.41175e-05
3.41174e-05
3.41214e-05
3.41289e-05
3.41385e-05
3.41464e-05
3.4145e-05
3.41208e-05
3.4052e-05
3.39058e-05
3.36367e-05
3.31849e-05
3.24891e-05
3.17284e-05
3.43731e-05
7.60791e-05
7.43064e-05
3.44699e-05
3.207e-05
3.27676e-05
3.33864e-05
3.37735e-05
3.39912e-05
3.4099e-05
3.41412e-05
3.41482e-05
3.41395e-05
3.4126e-05
3.41135e-05
3.41044e-05
3.40997e-05
3.40997e-05
3.41043e-05
3.41135e-05
3.41264e-05
3.41403e-05
3.41494e-05
3.41424e-05
3.40997e-05
3.39908e-05
3.37715e-05
3.33827e-05
3.2763e-05
3.20664e-05
3.44719e-05
7.4322e-05
7.29225e-05
3.45452e-05
3.23225e-05
3.2972e-05
3.35328e-05
3.38702e-05
3.40481e-05
3.41263e-05
3.41483e-05
3.41428e-05
3.4127e-05
3.41102e-05
3.40965e-05
3.40873e-05
3.40827e-05
3.40827e-05
3.40873e-05
3.40966e-05
3.41104e-05
3.41273e-05
3.41431e-05
3.41484e-05
3.41259e-05
3.40468e-05
3.38678e-05
3.35295e-05
3.29686e-05
3.23204e-05
3.45475e-05
7.29344e-05
7.18956e-05
3.45991e-05
3.25021e-05
3.31172e-05
3.36356e-05
3.39362e-05
3.40846e-05
3.41412e-05
3.41488e-05
3.41349e-05
3.41151e-05
3.40969e-05
3.40833e-05
3.40745e-05
3.40703e-05
3.40703e-05
3.40745e-05
3.40832e-05
3.40969e-05
3.4115e-05
3.41347e-05
3.41482e-05
3.41402e-05
3.4083e-05
3.39339e-05
3.3633e-05
3.31148e-05
3.25011e-05
3.46015e-05
7.19049e-05
7.12167e-05
3.46337e-05
3.26171e-05
3.321e-05
3.37008e-05
3.39772e-05
3.41064e-05
3.41489e-05
3.41474e-05
3.41286e-05
3.41066e-05
3.40881e-05
3.40748e-05
3.40666e-05
3.40628e-05
3.40628e-05
3.40665e-05
3.40746e-05
3.40878e-05
3.41063e-05
3.4128e-05
3.41465e-05
3.41476e-05
3.41047e-05
3.39752e-05
3.36987e-05
3.32085e-05
3.26168e-05
3.46362e-05
7.12245e-05
7.08791e-05
3.46505e-05
3.26732e-05
3.32552e-05
3.37323e-05
3.39968e-05
3.41165e-05
3.41522e-05
3.41464e-05
3.41252e-05
3.41023e-05
3.40837e-05
3.40707e-05
3.40629e-05
3.40593e-05
3.40593e-05
3.40628e-05
3.40706e-05
3.40834e-05
3.41019e-05
3.41245e-05
3.41453e-05
3.41508e-05
3.41148e-05
3.3995e-05
3.37306e-05
3.3254e-05
3.26731e-05
3.4653e-05
7.08864e-05
7.08791e-05
3.46505e-05
3.26731e-05
3.32551e-05
3.37323e-05
3.39968e-05
3.41164e-05
3.41521e-05
3.41463e-05
3.41252e-05
3.41023e-05
3.40837e-05
3.40707e-05
3.40629e-05
3.40593e-05
3.40592e-05
3.40628e-05
3.40705e-05
3.40834e-05
3.41019e-05
3.41245e-05
3.41453e-05
3.41508e-05
3.41148e-05
3.39949e-05
3.37305e-05
3.32539e-05
3.2673e-05
3.4653e-05
7.08867e-05
7.12168e-05
3.46337e-05
3.2617e-05
3.32098e-05
3.37006e-05
3.3977e-05
3.41062e-05
3.41488e-05
3.41473e-05
3.41285e-05
3.41065e-05
3.40879e-05
3.40746e-05
3.40664e-05
3.40626e-05
3.40625e-05
3.40663e-05
3.40745e-05
3.40877e-05
3.41062e-05
3.4128e-05
3.41465e-05
3.41475e-05
3.41045e-05
3.3975e-05
3.36985e-05
3.32081e-05
3.26164e-05
3.46361e-05
7.12255e-05
7.18958e-05
3.45991e-05
3.25018e-05
3.31168e-05
3.36352e-05
3.39358e-05
3.40844e-05
3.4141e-05
3.41485e-05
3.41347e-05
3.41148e-05
3.40966e-05
3.40828e-05
3.40741e-05
3.40699e-05
3.40699e-05
3.40741e-05
3.40829e-05
3.40967e-05
3.41149e-05
3.41346e-05
3.41481e-05
3.414e-05
3.40828e-05
3.39336e-05
3.36326e-05
3.31143e-05
3.25004e-05
3.46014e-05
7.19063e-05
7.29229e-05
3.45452e-05
3.2322e-05
3.29714e-05
3.35322e-05
3.38697e-05
3.40478e-05
3.4126e-05
3.41479e-05
3.41424e-05
3.41265e-05
3.41096e-05
3.40959e-05
3.40866e-05
3.4082e-05
3.4082e-05
3.40867e-05
3.40961e-05
3.411e-05
3.41271e-05
3.41429e-05
3.41482e-05
3.41258e-05
3.40466e-05
3.38674e-05
3.3529e-05
3.29679e-05
3.23196e-05
3.45472e-05
7.2936e-05
7.43072e-05
3.447e-05
3.20693e-05
3.27668e-05
3.33857e-05
3.37729e-05
3.39907e-05
3.40986e-05
3.41407e-05
3.41476e-05
3.41387e-05
3.41251e-05
3.41124e-05
3.41033e-05
3.40986e-05
3.40987e-05
3.41034e-05
3.41128e-05
3.41258e-05
3.41398e-05
3.4149e-05
3.41421e-05
3.40995e-05
3.39906e-05
3.37711e-05
3.33822e-05
3.27622e-05
3.20654e-05
3.44715e-05
7.43237e-05
7.60599e-05
3.43717e-05
3.17326e-05
3.24935e-05
3.31873e-05
3.36367e-05
3.39037e-05
3.40488e-05
3.41175e-05
3.4142e-05
3.41441e-05
3.41368e-05
3.41275e-05
3.41201e-05
3.4116e-05
3.4116e-05
3.41201e-05
3.41278e-05
3.41376e-05
3.41457e-05
3.41444e-05
3.41204e-05
3.40516e-05
3.39054e-05
3.36363e-05
3.31843e-05
3.24882e-05
3.17273e-05
3.43726e-05
7.60805e-05
7.81937e-05
3.42503e-05
3.12995e-05
3.21402e-05
3.29254e-05
3.34465e-05
3.37706e-05
3.39596e-05
3.40609e-05
3.41091e-05
3.41276e-05
3.41313e-05
3.41291e-05
3.41256e-05
3.41233e-05
3.41232e-05
3.41253e-05
3.4129e-05
3.41319e-05
3.41294e-05
3.41123e-05
3.40655e-05
3.39649e-05
3.37753e-05
3.3449e-05
3.29243e-05
3.21352e-05
3.12928e-05
3.42501e-05
7.82188e-05
8.07095e-05
3.41082e-05
3.07541e-05
3.16878e-05
3.25778e-05
3.31797e-05
3.35657e-05
3.38031e-05
3.39427e-05
3.4021e-05
3.40626e-05
3.40835e-05
3.40934e-05
3.40976e-05
3.40989e-05
3.40985e-05
3.40967e-05
3.40924e-05
3.40833e-05
3.40639e-05
3.40245e-05
3.39487e-05
3.3811e-05
3.35744e-05
3.31868e-05
3.25809e-05
3.16851e-05
3.07471e-05
3.41062e-05
8.0738e-05
8.34765e-05
3.39659e-05
3.00977e-05
3.11282e-05
3.21248e-05
3.2804e-05
3.3249e-05
3.3536e-05
3.37192e-05
3.38351e-05
3.3908e-05
3.39538e-05
3.3982e-05
3.39983e-05
3.40054e-05
3.40047e-05
3.39964e-05
3.39797e-05
3.39519e-05
3.39078e-05
3.38377e-05
3.37255e-05
3.3546e-05
3.32617e-05
3.28169e-05
3.21344e-05
3.11309e-05
3.00924e-05
3.39618e-05
8.35001e-05
8.66481e-05
3.39265e-05
2.94458e-05
3.04754e-05
3.15281e-05
3.2259e-05
3.2755e-05
3.30945e-05
3.33294e-05
3.34927e-05
3.36067e-05
3.3686e-05
3.37396e-05
3.37729e-05
3.37883e-05
3.37873e-05
3.37699e-05
3.37354e-05
3.36816e-05
3.36036e-05
3.34927e-05
3.33339e-05
3.31045e-05
3.27701e-05
3.22772e-05
3.15451e-05
3.04857e-05
2.94462e-05
3.39216e-05
8.66695e-05
9.03558e-05
3.42175e-05
2.90129e-05
2.9675e-05
3.06715e-05
3.14316e-05
3.19851e-05
3.23926e-05
3.26958e-05
3.29206e-05
3.30874e-05
3.32098e-05
3.32962e-05
3.33513e-05
3.33776e-05
3.33761e-05
3.33471e-05
3.32899e-05
3.32025e-05
3.30806e-05
3.29162e-05
3.26959e-05
3.2399e-05
3.19989e-05
3.14516e-05
3.06937e-05
2.96926e-05
2.90173e-05
3.42088e-05
9.037e-05
9.49073e-05
3.52487e-05
2.87278e-05
2.85068e-05
2.93672e-05
3.0186e-05
3.08366e-05
3.13489e-05
3.17486e-05
3.20547e-05
3.22882e-05
3.24636e-05
3.25895e-05
3.26706e-05
3.27096e-05
3.27079e-05
3.26657e-05
3.25818e-05
3.24539e-05
3.22778e-05
3.20453e-05
3.17424e-05
3.13481e-05
3.08433e-05
3.0201e-05
2.93884e-05
2.85277e-05
2.8734e-05
3.52316e-05
9.49058e-05
0.000101359
3.49063e-05
2.88246e-05
2.72865e-05
2.79852e-05
2.88959e-05
2.96684e-05
3.03118e-05
3.08103e-05
3.11916e-05
3.14842e-05
3.17055e-05
3.18645e-05
3.19671e-05
3.20167e-05
3.20153e-05
3.19628e-05
3.18576e-05
3.16963e-05
3.14735e-05
3.11801e-05
3.07994e-05
3.03031e-05
2.96641e-05
2.88981e-05
2.7993e-05
2.72965e-05
2.88206e-05
3.48713e-05
0.000101335
9.81928e-05
2.15196e-05
2.82602e-05
3.06587e-05
3.24284e-05
3.35924e-05
3.43288e-05
3.47646e-05
3.49986e-05
3.51351e-05
3.52236e-05
3.52816e-05
3.5319e-05
3.53417e-05
3.53524e-05
3.53525e-05
3.53419e-05
3.53193e-05
3.52817e-05
3.52232e-05
3.51337e-05
3.49964e-05
3.47615e-05
3.43249e-05
3.3588e-05
3.24228e-05
3.06507e-05
2.8246e-05
2.15034e-05
9.81531e-05
0.000258889
0.000129383
0.000107391
9.56205e-05
9.01202e-05
8.66929e-05
8.40801e-05
8.17929e-05
7.98873e-05
7.83376e-05
7.70674e-05
7.60321e-05
7.52634e-05
7.47578e-05
7.45084e-05
7.45115e-05
7.47672e-05
7.52792e-05
7.60543e-05
7.70948e-05
7.83637e-05
7.99165e-05
8.18248e-05
8.41128e-05
8.67235e-05
9.01432e-05
9.56276e-05
0.000107372
0.000129329
0.000258768
0.000210905
0.000106956
9.27371e-05
8.50166e-05
8.24598e-05
8.11624e-05
8.0274e-05
7.9394e-05
7.85503e-05
7.7858e-05
7.73585e-05
7.70532e-05
7.68355e-05
7.66897e-05
7.6614e-05
7.6608e-05
7.66717e-05
7.68049e-05
7.70091e-05
7.7302e-05
7.78043e-05
7.84862e-05
7.93164e-05
8.01627e-05
8.10535e-05
8.2377e-05
8.49872e-05
9.27902e-05
0.000107125
0.000211298
7.80755e-05
2.35619e-05
4.1125e-05
4.19559e-05
4.32344e-05
4.3494e-05
4.31461e-05
4.27931e-05
4.23051e-05
4.17899e-05
4.13313e-05
4.09696e-05
4.07087e-05
4.05402e-05
4.04574e-05
4.04567e-05
4.05382e-05
4.0706e-05
4.09674e-05
4.13306e-05
4.17911e-05
4.23076e-05
4.27972e-05
4.31568e-05
4.35263e-05
4.32892e-05
4.20341e-05
4.12222e-05
2.36685e-05
7.82395e-05
8.99887e-05
5.03783e-05
4.08981e-05
3.28802e-05
3.01375e-05
2.95851e-05
2.94472e-05
2.92278e-05
2.90121e-05
2.88151e-05
2.86475e-05
2.85161e-05
2.84249e-05
2.83706e-05
2.83475e-05
2.83521e-05
2.83848e-05
2.84493e-05
2.85503e-05
2.8688e-05
2.88612e-05
2.9059e-05
2.92699e-05
2.94755e-05
2.95897e-05
3.01207e-05
3.28657e-05
4.09544e-05
5.06196e-05
9.00924e-05
8.601e-05
4.92804e-05
3.60756e-05
2.84127e-05
2.50693e-05
2.44558e-05
2.47058e-05
2.50694e-05
2.53815e-05
2.56564e-05
2.58769e-05
2.60407e-05
2.61565e-05
2.62323e-05
2.62728e-05
2.62802e-05
2.62543e-05
2.61927e-05
2.60889e-05
2.5932e-05
2.57107e-05
2.54203e-05
2.50887e-05
2.46922e-05
2.44004e-05
2.49809e-05
2.83444e-05
3.61039e-05
4.94415e-05
8.60252e-05
8.43881e-05
4.52474e-05
3.22603e-05
2.6014e-05
2.40829e-05
2.40307e-05
2.45588e-05
2.51392e-05
2.56261e-05
2.60168e-05
2.63199e-05
2.65443e-05
2.67012e-05
2.68013e-05
2.68527e-05
2.68591e-05
2.682e-05
2.67306e-05
2.65811e-05
2.63579e-05
2.60481e-05
2.56402e-05
2.51266e-05
2.45093e-05
2.39461e-05
2.39925e-05
2.59516e-05
3.22714e-05
4.53473e-05
8.43444e-05
8.32179e-05
4.20054e-05
3.00149e-05
2.51439e-05
2.43111e-05
2.47053e-05
2.53389e-05
2.59372e-05
2.64334e-05
2.68237e-05
2.71208e-05
2.73391e-05
2.74914e-05
2.75882e-05
2.7637e-05
2.76416e-05
2.76013e-05
2.75111e-05
2.73617e-05
2.71407e-05
2.6834e-05
2.64268e-05
2.59077e-05
2.52846e-05
2.46343e-05
2.42434e-05
2.51149e-05
3.00344e-05
4.20616e-05
8.31507e-05
8.2037e-05
3.99501e-05
2.84057e-05
2.49096e-05
2.48467e-05
2.54717e-05
2.61409e-05
2.67159e-05
2.71773e-05
2.75329e-05
2.7799e-05
2.79916e-05
2.81245e-05
2.82081e-05
2.82497e-05
2.82526e-05
2.82163e-05
2.8136e-05
2.80033e-05
2.78064e-05
2.75314e-05
2.71626e-05
2.66863e-05
2.60992e-05
2.54277e-05
2.48171e-05
2.49134e-05
2.84365e-05
3.99658e-05
8.19854e-05
8.10219e-05
3.86964e-05
2.7443e-05
2.49788e-05
2.53634e-05
2.61199e-05
2.6797e-05
2.73409e-05
2.77595e-05
2.80722e-05
2.82997e-05
2.84603e-05
2.85688e-05
2.86358e-05
2.86685e-05
2.86702e-05
2.86403e-05
2.85746e-05
2.8465e-05
2.83004e-05
2.80661e-05
2.7745e-05
2.73189e-05
2.67722e-05
2.61012e-05
2.53627e-05
2.50033e-05
2.74736e-05
3.87024e-05
8.09658e-05
8.03879e-05
3.78535e-05
2.69624e-05
2.52432e-05
2.58384e-05
2.66396e-05
2.73048e-05
2.78128e-05
2.81873e-05
2.8456e-05
2.86441e-05
2.8772e-05
2.88555e-05
2.89057e-05
2.89296e-05
2.89304e-05
2.89078e-05
2.88579e-05
2.87731e-05
2.86421e-05
2.84498e-05
2.81768e-05
2.78e-05
2.72941e-05
2.66377e-05
2.58519e-05
2.52722e-05
2.69868e-05
3.78541e-05
8.03439e-05
7.98327e-05
3.72661e-05
2.67297e-05
2.55272e-05
2.62373e-05
2.7046e-05
2.76867e-05
2.81568e-05
2.84888e-05
2.87162e-05
2.88675e-05
2.89653e-05
2.9026e-05
2.9061e-05
2.90771e-05
2.90774e-05
2.90618e-05
2.90267e-05
2.8965e-05
2.88653e-05
2.87118e-05
2.84829e-05
2.81514e-05
2.76851e-05
2.70521e-05
2.62537e-05
2.55515e-05
2.6746e-05
3.72638e-05
7.98005e-05
7.9346e-05
3.68538e-05
2.66266e-05
2.57728e-05
2.65476e-05
2.73524e-05
2.79661e-05
2.84002e-05
2.86938e-05
2.88849e-05
2.90046e-05
2.90768e-05
2.91184e-05
2.91408e-05
2.91505e-05
2.91507e-05
2.91411e-05
2.91185e-05
2.90763e-05
2.90032e-05
2.88827e-05
2.86916e-05
2.83994e-05
2.79689e-05
2.73608e-05
2.65618e-05
2.57897e-05
2.66359e-05
3.685e-05
7.93231e-05
7.89394e-05
3.65682e-05
2.65932e-05
2.59729e-05
2.67819e-05
2.75762e-05
2.81641e-05
2.85669e-05
2.88284e-05
2.89898e-05
2.90841e-05
2.91361e-05
2.9163e-05
2.91757e-05
2.91808e-05
2.91808e-05
2.91759e-05
2.9163e-05
2.91359e-05
2.90836e-05
2.89893e-05
2.88286e-05
2.85686e-05
2.81685e-05
2.75838e-05
2.67921e-05
2.59828e-05
2.6597e-05
3.65638e-05
7.89231e-05
7.86238e-05
3.63775e-05
2.65935e-05
2.61261e-05
2.69511e-05
2.77326e-05
2.82985e-05
2.86762e-05
2.8913e-05
2.90519e-05
2.91275e-05
2.91649e-05
2.91813e-05
2.91874e-05
2.91891e-05
2.91892e-05
2.91875e-05
2.91814e-05
2.91651e-05
2.91278e-05
2.90525e-05
2.89143e-05
2.86789e-05
2.83029e-05
2.77385e-05
2.69575e-05
2.61308e-05
2.65935e-05
3.6373e-05
7.86118e-05
7.84081e-05
3.62615e-05
2.66048e-05
2.62304e-05
2.70616e-05
2.78319e-05
2.83817e-05
2.87419e-05
2.89618e-05
2.90859e-05
2.91493e-05
2.91773e-05
2.91871e-05
2.91891e-05
2.91888e-05
2.91889e-05
2.91892e-05
2.91874e-05
2.91778e-05
2.915e-05
2.90871e-05
2.89638e-05
2.87448e-05
2.83856e-05
2.78363e-05
2.70654e-05
2.62318e-05
2.66027e-05
3.62567e-05
7.83986e-05
7.82986e-05
3.62077e-05
2.6614e-05
2.62832e-05
2.71163e-05
2.78803e-05
2.84215e-05
2.87727e-05
2.89841e-05
2.91008e-05
2.91581e-05
2.91817e-05
2.91883e-05
2.91883e-05
2.91872e-05
2.91872e-05
2.91885e-05
2.91887e-05
2.91823e-05
2.91591e-05
2.91022e-05
2.89862e-05
2.87756e-05
2.8425e-05
2.78838e-05
2.71188e-05
2.62831e-05
2.66108e-05
3.62024e-05
7.82902e-05
7.82992e-05
3.6208e-05
2.66142e-05
2.62833e-05
2.71164e-05
2.78803e-05
2.84215e-05
2.87727e-05
2.89841e-05
2.91008e-05
2.91581e-05
2.91817e-05
2.91884e-05
2.91883e-05
2.91872e-05
2.91872e-05
2.91885e-05
2.91887e-05
2.91822e-05
2.9159e-05
2.91021e-05
2.89862e-05
2.87755e-05
2.8425e-05
2.78839e-05
2.7119e-05
2.62835e-05
2.66113e-05
3.62028e-05
7.82904e-05
7.84098e-05
3.62622e-05
2.66054e-05
2.62309e-05
2.7062e-05
2.78321e-05
2.83818e-05
2.8742e-05
2.89619e-05
2.9086e-05
2.91493e-05
2.91774e-05
2.91872e-05
2.91892e-05
2.91889e-05
2.9189e-05
2.91893e-05
2.91874e-05
2.91777e-05
2.91498e-05
2.90869e-05
2.89636e-05
2.87446e-05
2.83855e-05
2.78365e-05
2.7066e-05
2.6233e-05
2.66041e-05
3.62578e-05
7.83993e-05
7.86266e-05
3.63788e-05
2.65946e-05
2.61271e-05
2.69519e-05
2.7733e-05
2.82987e-05
2.86763e-05
2.89131e-05
2.90521e-05
2.91277e-05
2.91652e-05
2.91816e-05
2.91877e-05
2.91894e-05
2.91894e-05
2.91876e-05
2.91815e-05
2.9165e-05
2.91276e-05
2.90523e-05
2.8914e-05
2.86786e-05
2.83027e-05
2.77387e-05
2.69584e-05
2.61326e-05
2.65959e-05
3.63749e-05
7.86132e-05
7.8943e-05
3.65701e-05
2.65951e-05
2.59746e-05
2.67832e-05
2.7577e-05
2.81646e-05
2.85672e-05
2.88287e-05
2.89902e-05
2.90847e-05
2.91368e-05
2.91637e-05
2.91765e-05
2.91814e-05
2.91814e-05
2.91763e-05
2.91633e-05
2.9136e-05
2.90836e-05
2.89891e-05
2.88283e-05
2.85683e-05
2.81683e-05
2.7584e-05
2.6793e-05
2.59849e-05
2.66e-05
3.65666e-05
7.89255e-05
7.93502e-05
3.68565e-05
2.66294e-05
2.57754e-05
2.65497e-05
2.73537e-05
2.79668e-05
2.84007e-05
2.86944e-05
2.88857e-05
2.90057e-05
2.9078e-05
2.91198e-05
2.91421e-05
2.91518e-05
2.91518e-05
2.9142e-05
2.91193e-05
2.90768e-05
2.90035e-05
2.88828e-05
2.86915e-05
2.83993e-05
2.79688e-05
2.73609e-05
2.65626e-05
2.57917e-05
2.66394e-05
3.68538e-05
7.93268e-05
7.98371e-05
3.72698e-05
2.67339e-05
2.55313e-05
2.62402e-05
2.70476e-05
2.76877e-05
2.81577e-05
2.84898e-05
2.87176e-05
2.88694e-05
2.89675e-05
2.90284e-05
2.90633e-05
2.90793e-05
2.90795e-05
2.90636e-05
2.90282e-05
2.89662e-05
2.88663e-05
2.87125e-05
2.84833e-05
2.81517e-05
2.76853e-05
2.70523e-05
2.62545e-05
2.55534e-05
2.67501e-05
3.72687e-05
7.9806e-05
8.03921e-05
3.78585e-05
2.69685e-05
2.52488e-05
2.58419e-05
2.66414e-05
2.73059e-05
2.7814e-05
2.81891e-05
2.84585e-05
2.86472e-05
2.87756e-05
2.88593e-05
2.89095e-05
2.89332e-05
2.89338e-05
2.89108e-05
2.88605e-05
2.87753e-05
2.8644e-05
2.84514e-05
2.81781e-05
2.78011e-05
2.7295e-05
2.66384e-05
2.58528e-05
2.52742e-05
2.69915e-05
3.78604e-05
8.03517e-05
8.10256e-05
3.87033e-05
2.74509e-05
2.49851e-05
2.53666e-05
2.61213e-05
2.67981e-05
2.73427e-05
2.77624e-05
2.80763e-05
2.83048e-05
2.8466e-05
2.85746e-05
2.86416e-05
2.8674e-05
2.86752e-05
2.86448e-05
2.85786e-05
2.84686e-05
2.83036e-05
2.8069e-05
2.77476e-05
2.73214e-05
2.67744e-05
2.61031e-05
2.53645e-05
2.5006e-05
2.74793e-05
3.87106e-05
8.09766e-05
8.20411e-05
3.99597e-05
2.84143e-05
2.4914e-05
2.4848e-05
2.54721e-05
2.61421e-05
2.67189e-05
2.71821e-05
2.75395e-05
2.78067e-05
2.8e-05
2.8133e-05
2.82164e-05
2.82575e-05
2.82598e-05
2.82228e-05
2.81419e-05
2.80086e-05
2.78112e-05
2.75358e-05
2.71669e-05
2.66906e-05
2.61035e-05
2.54317e-05
2.48207e-05
2.49172e-05
2.84439e-05
3.99774e-05
8.19981e-05
8.32256e-05
4.20273e-05
3.00223e-05
2.51458e-05
2.43102e-05
2.47051e-05
2.53411e-05
2.59425e-05
2.64413e-05
2.68337e-05
2.71321e-05
2.7351e-05
2.75032e-05
2.75995e-05
2.76476e-05
2.76513e-05
2.76102e-05
2.75192e-05
2.7369e-05
2.71473e-05
2.68401e-05
2.64328e-05
2.59141e-05
2.52915e-05
2.46414e-05
2.42503e-05
2.5121e-05
3.00422e-05
4.20863e-05
8.31729e-05
8.43998e-05
4.52717e-05
3.22673e-05
2.60141e-05
2.40809e-05
2.40316e-05
2.4564e-05
2.51484e-05
2.56382e-05
2.60314e-05
2.63358e-05
2.65604e-05
2.67168e-05
2.6816e-05
2.68664e-05
2.68717e-05
2.68317e-05
2.67413e-05
2.65908e-05
2.63666e-05
2.6056e-05
2.56477e-05
2.51347e-05
2.45186e-05
2.39565e-05
2.40022e-05
2.59619e-05
3.22811e-05
4.53699e-05
8.43704e-05
8.6028e-05
4.93081e-05
3.60883e-05
2.84137e-05
2.50695e-05
2.446e-05
2.47146e-05
2.50818e-05
2.53965e-05
2.56751e-05
2.58964e-05
2.60602e-05
2.6175e-05
2.62496e-05
2.6289e-05
2.62954e-05
2.62685e-05
2.62058e-05
2.61006e-05
2.59425e-05
2.57201e-05
2.54283e-05
2.50967e-05
2.47013e-05
2.44109e-05
2.49934e-05
2.83583e-05
3.61224e-05
4.94607e-05
8.60523e-05
9.00147e-05
5.04099e-05
4.09102e-05
3.28849e-05
3.01427e-05
2.95927e-05
2.94591e-05
2.92415e-05
2.90267e-05
2.88301e-05
2.86624e-05
2.85315e-05
2.84396e-05
2.83845e-05
2.83608e-05
2.83651e-05
2.83975e-05
2.84612e-05
2.85604e-05
2.86972e-05
2.88698e-05
2.90673e-05
2.92786e-05
2.94853e-05
2.95979e-05
3.01297e-05
3.28755e-05
4.09674e-05
5.06235e-05
9.01152e-05
7.80996e-05
2.35732e-05
4.11373e-05
4.19706e-05
4.32494e-05
4.35072e-05
4.31554e-05
4.28001e-05
4.23118e-05
4.17966e-05
4.13377e-05
4.09756e-05
4.07144e-05
4.0546e-05
4.04633e-05
4.04629e-05
4.05449e-05
4.07131e-05
4.0975e-05
4.13386e-05
4.17997e-05
4.23168e-05
4.28084e-05
4.31767e-05
4.35475e-05
4.33085e-05
4.20499e-05
4.12351e-05
2.36734e-05
7.82582e-05
0.000210947
0.000106971
9.27389e-05
8.5011e-05
8.24501e-05
8.11509e-05
8.02628e-05
7.93873e-05
7.85452e-05
7.78536e-05
7.73507e-05
7.70461e-05
7.68295e-05
7.66848e-05
7.661e-05
7.66051e-05
7.66698e-05
7.6804e-05
7.70095e-05
7.73041e-05
7.78099e-05
7.84936e-05
7.93257e-05
8.01767e-05
8.10699e-05
8.2394e-05
8.50027e-05
9.28036e-05
0.000107134
0.000211319
0.000187732
9.41803e-05
8.31585e-05
7.73948e-05
7.59236e-05
7.52858e-05
7.47662e-05
7.41435e-05
7.3661e-05
7.32713e-05
7.29329e-05
7.26306e-05
7.24089e-05
7.22679e-05
7.2204e-05
7.22153e-05
7.23019e-05
7.2466e-05
7.27108e-05
7.30355e-05
7.33869e-05
7.3794e-05
7.42921e-05
7.49424e-05
7.5445e-05
7.60348e-05
7.74283e-05
8.30821e-05
9.39326e-05
0.000187129
7.06546e-05
3.05192e-05
5.11421e-05
5.42483e-05
5.72273e-05
5.95037e-05
6.07894e-05
6.09179e-05
6.03088e-05
5.933e-05
5.82867e-05
5.73554e-05
5.66254e-05
5.61337e-05
5.58918e-05
5.5902e-05
5.61631e-05
5.66707e-05
5.74111e-05
5.83461e-05
5.93862e-05
6.03575e-05
6.09543e-05
6.07953e-05
5.94545e-05
5.71273e-05
5.4112e-05
5.09802e-05
3.02242e-05
7.03897e-05
8.17789e-05
5.6555e-05
5.07322e-05
4.46325e-05
4.02782e-05
3.79575e-05
3.65883e-05
3.56111e-05
3.48544e-05
3.41342e-05
3.34918e-05
3.29704e-05
3.25846e-05
3.2333e-05
3.22099e-05
3.22105e-05
3.23346e-05
3.25862e-05
3.2971e-05
3.34917e-05
3.41315e-05
3.48513e-05
3.56061e-05
3.65678e-05
3.79583e-05
4.03114e-05
4.46611e-05
5.06345e-05
5.6166e-05
8.15977e-05
7.86031e-05
5.98167e-05
4.88741e-05
3.69294e-05
3.01177e-05
2.71046e-05
2.60293e-05
2.56428e-05
2.54516e-05
2.52266e-05
2.50126e-05
2.48464e-05
2.47309e-05
2.46583e-05
2.46208e-05
2.46138e-05
2.46371e-05
2.46953e-05
2.47977e-05
2.49567e-05
2.51733e-05
2.54261e-05
2.56327e-05
2.60438e-05
2.7164e-05
3.02705e-05
3.70203e-05
4.8771e-05
5.95264e-05
7.85443e-05
7.72577e-05
5.8033e-05
4.37593e-05
3.15664e-05
2.55738e-05
2.31883e-05
2.23655e-05
2.22276e-05
2.23075e-05
2.2415e-05
2.25059e-05
2.25894e-05
2.26629e-05
2.27157e-05
2.27395e-05
2.27305e-05
2.26893e-05
2.26209e-05
2.25378e-05
2.24609e-05
2.23817e-05
2.22981e-05
2.22509e-05
2.24325e-05
2.32894e-05
2.56564e-05
3.16384e-05
4.36709e-05
5.78419e-05
7.72941e-05
7.64394e-05
5.65068e-05
3.85e-05
2.79839e-05
2.35525e-05
2.19269e-05
2.16624e-05
2.18487e-05
2.2134e-05
2.23977e-05
2.26093e-05
2.27736e-05
2.28961e-05
2.29767e-05
2.30138e-05
2.30067e-05
2.29562e-05
2.28651e-05
2.27388e-05
2.25811e-05
2.23856e-05
2.21491e-05
2.19001e-05
2.17503e-05
2.20215e-05
2.36292e-05
2.79998e-05
3.84226e-05
5.64123e-05
7.65281e-05
7.58839e-05
5.4442e-05
3.44594e-05
2.58287e-05
2.25061e-05
2.17336e-05
2.1895e-05
2.22693e-05
2.26422e-05
2.29567e-05
2.3204e-05
2.33896e-05
2.35219e-05
2.36063e-05
2.36455e-05
2.36408e-05
2.35932e-05
2.35034e-05
2.33714e-05
2.31935e-05
2.29617e-05
2.26693e-05
2.23217e-05
2.19658e-05
2.18039e-05
2.25449e-05
2.5821e-05
3.44359e-05
5.44238e-05
7.59716e-05
7.53998e-05
5.21705e-05
3.2e-05
2.453e-05
2.20564e-05
2.18852e-05
2.23025e-05
2.27887e-05
2.32116e-05
2.35474e-05
2.38014e-05
2.39861e-05
2.41138e-05
2.41933e-05
2.42302e-05
2.42274e-05
2.41857e-05
2.41041e-05
2.39783e-05
2.38006e-05
2.35583e-05
2.3237e-05
2.28272e-05
2.23457e-05
2.19172e-05
2.20584e-05
2.45007e-05
3.19918e-05
5.21763e-05
7.54867e-05
7.48497e-05
4.99183e-05
3.03605e-05
2.36629e-05
2.19134e-05
2.21283e-05
2.26965e-05
2.3245e-05
2.36928e-05
2.40345e-05
2.42843e-05
2.44602e-05
2.4578e-05
2.46496e-05
2.46826e-05
2.46811e-05
2.46457e-05
2.45735e-05
2.44578e-05
2.4287e-05
2.40445e-05
2.37105e-05
2.32671e-05
2.27153e-05
2.2132e-05
2.18926e-05
2.363e-05
3.03574e-05
4.99371e-05
7.49208e-05
7.4401e-05
4.79344e-05
2.92618e-05
2.32088e-05
2.20074e-05
2.24066e-05
2.30438e-05
2.36165e-05
2.40687e-05
2.44042e-05
2.46427e-05
2.48054e-05
2.4911e-05
2.49735e-05
2.5002e-05
2.50012e-05
2.49716e-05
2.49092e-05
2.48051e-05
2.46454e-05
2.44107e-05
2.4078e-05
2.36255e-05
2.30468e-05
2.23972e-05
2.19834e-05
2.3183e-05
2.92619e-05
4.79614e-05
7.44562e-05
7.40513e-05
4.63129e-05
2.85142e-05
2.29867e-05
2.21746e-05
2.26733e-05
2.33357e-05
2.39086e-05
2.43507e-05
2.46718e-05
2.48943e-05
2.50418e-05
2.51345e-05
2.51877e-05
2.52116e-05
2.52112e-05
2.51868e-05
2.51336e-05
2.50418e-05
2.48958e-05
2.46747e-05
2.43538e-05
2.39094e-05
2.33311e-05
2.26606e-05
2.21549e-05
2.29703e-05
2.85168e-05
4.63444e-05
7.40932e-05
7.37887e-05
4.50735e-05
2.80033e-05
2.28819e-05
2.23415e-05
2.28999e-05
2.35681e-05
2.41297e-05
2.45551e-05
2.48579e-05
2.5063e-05
2.51951e-05
2.52755e-05
2.53203e-05
2.53398e-05
2.53396e-05
2.53197e-05
2.52749e-05
2.51948e-05
2.5063e-05
2.4858e-05
2.45543e-05
2.41266e-05
2.35611e-05
2.28886e-05
2.23284e-05
2.28745e-05
2.80097e-05
4.51054e-05
7.38202e-05
7.3602e-05
4.41935e-05
2.76684e-05
2.28351e-05
2.24782e-05
2.30737e-05
2.37403e-05
2.4288e-05
2.46958e-05
2.49811e-05
2.51702e-05
2.52889e-05
2.5359e-05
2.53967e-05
2.54128e-05
2.54126e-05
2.53962e-05
2.53582e-05
2.52881e-05
2.51692e-05
2.49795e-05
2.46931e-05
2.42834e-05
2.37334e-05
2.30653e-05
2.24709e-05
2.28343e-05
2.76772e-05
4.42228e-05
7.36257e-05
7.3483e-05
4.36397e-05
2.74714e-05
2.28173e-05
2.25729e-05
2.31903e-05
2.38536e-05
2.43897e-05
2.47838e-05
2.50556e-05
2.52327e-05
2.53415e-05
2.54041e-05
2.54368e-05
2.54505e-05
2.54503e-05
2.54363e-05
2.54032e-05
2.53403e-05
2.5231e-05
2.50532e-05
2.47803e-05
2.43849e-05
2.38477e-05
2.31844e-05
2.25696e-05
2.282e-05
2.74804e-05
4.36626e-05
7.35011e-05
7.34273e-05
4.33995e-05
2.73853e-05
2.28135e-05
2.26213e-05
2.32487e-05
2.39098e-05
2.44396e-05
2.48261e-05
2.50906e-05
2.52613e-05
2.5365e-05
2.54236e-05
2.54538e-05
2.54662e-05
2.5466e-05
2.54533e-05
2.54228e-05
2.53637e-05
2.52595e-05
2.5088e-05
2.48225e-05
2.4435e-05
2.39047e-05
2.32442e-05
2.26197e-05
2.2817e-05
2.73914e-05
4.34026e-05
7.34411e-05
7.34256e-05
4.33987e-05
2.7385e-05
2.28135e-05
2.26216e-05
2.3249e-05
2.39102e-05
2.44399e-05
2.48264e-05
2.50909e-05
2.52616e-05
2.53652e-05
2.54239e-05
2.5454e-05
2.54664e-05
2.54663e-05
2.54536e-05
2.54231e-05
2.5364e-05
2.52599e-05
2.50885e-05
2.48231e-05
2.44355e-05
2.39052e-05
2.32446e-05
2.26198e-05
2.28166e-05
2.73908e-05
4.34016e-05
7.34399e-05
7.34777e-05
4.36329e-05
2.74701e-05
2.28172e-05
2.25735e-05
2.31911e-05
2.38546e-05
2.43907e-05
2.47847e-05
2.50564e-05
2.52334e-05
2.53422e-05
2.54047e-05
2.54375e-05
2.54512e-05
2.5451e-05
2.54371e-05
2.54042e-05
2.53414e-05
2.52323e-05
2.50546e-05
2.47818e-05
2.43865e-05
2.38492e-05
2.31855e-05
2.25699e-05
2.2819e-05
2.7478e-05
4.36543e-05
7.34967e-05
7.35931e-05
4.41817e-05
2.76661e-05
2.28348e-05
2.2479e-05
2.30749e-05
2.37418e-05
2.42895e-05
2.46972e-05
2.49824e-05
2.51714e-05
2.52899e-05
2.53599e-05
2.53976e-05
2.54138e-05
2.54137e-05
2.53974e-05
2.53597e-05
2.52898e-05
2.51711e-05
2.49817e-05
2.46955e-05
2.4286e-05
2.3736e-05
2.30674e-05
2.24719e-05
2.2833e-05
2.76734e-05
4.42082e-05
7.36177e-05
7.37765e-05
4.50568e-05
2.80004e-05
2.28814e-05
2.23425e-05
2.29014e-05
2.357e-05
2.41316e-05
2.45568e-05
2.48594e-05
2.50643e-05
2.51962e-05
2.52765e-05
2.53213e-05
2.5341e-05
2.53409e-05
2.53212e-05
2.52767e-05
2.51968e-05
2.50654e-05
2.48608e-05
2.45574e-05
2.41301e-05
2.35647e-05
2.28919e-05
2.23306e-05
2.28739e-05
2.80054e-05
4.50846e-05
7.38079e-05
7.40363e-05
4.62923e-05
2.85128e-05
2.29863e-05
2.21754e-05
2.26748e-05
2.33377e-05
2.39106e-05
2.43525e-05
2.46732e-05
2.48954e-05
2.50426e-05
2.51352e-05
2.51884e-05
2.52125e-05
2.52123e-05
2.51882e-05
2.51354e-05
2.5044e-05
2.48983e-05
2.46776e-05
2.43572e-05
2.39133e-05
2.33355e-05
2.26651e-05
2.21588e-05
2.29716e-05
2.8515e-05
4.63183e-05
7.40763e-05
7.43838e-05
4.7911e-05
2.92606e-05
2.32074e-05
2.20072e-05
2.24077e-05
2.30456e-05
2.36184e-05
2.40701e-05
2.44051e-05
2.46431e-05
2.48055e-05
2.4911e-05
2.49735e-05
2.50022e-05
2.50018e-05
2.49726e-05
2.49106e-05
2.48069e-05
2.46476e-05
2.44133e-05
2.4081e-05
2.36291e-05
2.30511e-05
2.24021e-05
2.19883e-05
2.31856e-05
2.92609e-05
4.79316e-05
7.44342e-05
7.48312e-05
4.98931e-05
3.03589e-05
2.36593e-05
2.19117e-05
2.21289e-05
2.26981e-05
2.32464e-05
2.36934e-05
2.40342e-05
2.42833e-05
2.44588e-05
2.45765e-05
2.46483e-05
2.46817e-05
2.46807e-05
2.46458e-05
2.45741e-05