/*--------------------------------*- C++ -*----------------------------------*\
| =========                 |                                                 |
| \\      /  F ield         | OpenFOAM: The Open Source CFD Toolbox           |
|  \\    /   O peration     | Version:  2312                                  |
|   \\  /    A nd           | Website:  www.openfoam.com                      |
|    \\/     M anipulation  |                                                 |
\*---------------------------------------------------------------------------*/
FoamFile
{
    version     2.0;
    format      ascii;
    arch        "LSB;label=32;scalar=64";
    class       volScalarField;
    location    "550";
    object      nut;
}
// * * * * * * * * * * * * * * * * * * * * * * * * * * * * * * * * * * * * * //

dimensions      [0 2 -1 0 0 0 0];

internalField   nonuniform List<scalar> 
27000
(
3.95e-06
6.7035e-06
9.36141e-06
1.17402e-05
1.40518e-05
1.62086e-05
1.81661e-05
1.98187e-05
2.12397e-05
2.24532e-05
2.34568e-05
2.42494e-05
2.48406e-05
2.52338e-05
2.54304e-05
2.54311e-05
2.52359e-05
2.48441e-05
2.42541e-05
2.34623e-05
2.24583e-05
2.1245e-05
1.9824e-05
1.8171e-05
1.62128e-05
1.40545e-05
1.17412e-05
9.36077e-06
6.70199e-06
3.94894e-06
5.74928e-06
1.27953e-06
5.15877e-06
9.07638e-06
1.31591e-05
1.7038e-05
2.07012e-05
2.41081e-05
2.71928e-05
2.99338e-05
3.23094e-05
3.42894e-05
3.58212e-05
3.68635e-05
3.73901e-05
3.73882e-05
3.68581e-05
3.58132e-05
3.42801e-05
3.23013e-05
2.99289e-05
2.71893e-05
2.41053e-05
2.06986e-05
1.70363e-05
1.31581e-05
9.0762e-06
5.15844e-06
1.279e-06
5.74825e-06
9.22504e-06
7.13044e-06
1.45393e-05
2.6168e-05
3.68844e-05
4.62505e-05
5.48154e-05
6.28396e-05
7.01377e-05
7.65742e-05
8.20763e-05
8.65951e-05
9.00577e-05
9.23974e-05
9.35736e-05
9.35678e-05
9.23813e-05
9.0035e-05
8.65731e-05
8.20657e-05
7.65766e-05
7.01496e-05
6.28563e-05
5.48323e-05
4.62649e-05
3.68937e-05
2.61817e-05
1.45509e-05
7.12527e-06
9.22394e-06
1.21558e-05
1.08384e-05
2.61064e-05
5.27063e-05
7.82883e-05
9.63916e-05
0.000109902
0.000120968
0.000130288
0.000138027
0.000144371
0.000149409
0.000153176
0.000155682
0.000156932
0.000156928
0.000155671
0.000153163
0.000149404
0.000144382
0.000138054
0.000130332
0.000121017
0.00010994
9.64103e-05
7.82983e-05
5.27375e-05
2.61334e-05
1.0837e-05
1.2156e-05
1.49234e-05
1.44765e-05
3.69362e-05
7.63025e-05
0.00011338
0.000139214
0.000156058
0.000167899
0.000176802
0.000183266
0.000188277
0.000192151
0.000194984
0.000196843
0.000197764
0.000197762
0.00019684
0.000194983
0.000192156
0.000188288
0.000183266
0.000176829
0.000167941
0.000156089
0.000139232
0.000113399
7.63482e-05
3.69669e-05
1.44764e-05
1.49251e-05
1.74861e-05
1.84162e-05
4.77736e-05
9.53792e-05
0.000137959
0.00016735
0.000185487
0.000196865
0.000204379
0.000209465
0.000213029
0.000215579
0.000217362
0.000218501
0.000219057
0.000219057
0.000218501
0.000217364
0.000215587
0.000213043
0.000209486
0.000204413
0.000196904
0.000185528
0.000167411
0.000138011
9.54385e-05
4.78058e-05
1.84162e-05
1.7489e-05
1.98199e-05
2.25585e-05
5.86398e-05
0.000111636
0.000155884
0.000185217
0.000202923
0.000213274
0.000219412
0.00022315
0.000225497
0.000227015
0.000227997
0.000228594
0.000228878
0.000228878
0.000228595
0.000228001
0.000227024
0.000225514
0.000223175
0.000219445
0.000213312
0.000202966
0.00018527
0.000155942
0.000111693
5.86616e-05
2.25566e-05
1.98235e-05
2.19068e-05
2.67525e-05
6.91661e-05
0.000125692
0.000169938
0.000197427
0.000213431
0.000222318
0.000227155
0.000229782
0.000231223
0.000232026
0.000232481
0.00023273
0.000232841
0.000232841
0.000232731
0.000232485
0.000232037
0.00023124
0.000229807
0.000227186
0.000222354
0.000213472
0.000197471
0.000169981
0.000125731
6.91755e-05
2.6748e-05
2.19115e-05
2.37198e-05
3.0875e-05
7.90034e-05
0.00013773
0.00018102
0.000206115
0.000220035
0.000227343
0.000231008
0.000232764
0.000233564
0.000233906
0.000234041
0.000234088
0.000234101
0.000234102
0.00023409
0.000234046
0.000233917
0.000233581
0.000232787
0.000231035
0.000227373
0.000220066
0.000206143
0.000181033
0.000137746
7.89997e-05
3.08685e-05
2.37242e-05
2.5273e-05
3.47654e-05
8.7928e-05
0.000147818
0.000188868
0.000212141
0.000224248
0.000230173
0.000232872
0.000233976
0.000234343
0.000234403
0.000234359
0.000234302
0.000234267
0.000234268
0.000234304
0.000234364
0.000234412
0.000234357
0.000233994
0.000232892
0.000230195
0.000224269
0.000212158
0.000188878
0.000147816
8.79133e-05
3.47577e-05
2.52768e-05
2.65674e-05
3.82687e-05
9.57229e-05
0.000156265
0.000195383
0.000216562
0.000227031
0.000231805
0.000233751
0.000234388
0.000234476
0.000234374
0.00023424
0.000234136
0.000234082
0.000234083
0.000234138
0.000234245
0.000234381
0.000234486
0.0002344
0.000233764
0.000231817
0.000227041
0.000216567
0.00019538
0.000156249
9.56998e-05
3.82601e-05
2.65705e-05
2.76025e-05
4.12487e-05
0.000102173
0.000163008
0.000200457
0.000219821
0.000228915
0.000232775
0.00023416
0.000234474
0.000234387
0.0002342
0.000234028
0.00023391
0.000233851
0.000233852
0.000233911
0.000234031
0.000234204
0.000234393
0.00023448
0.000234166
0.000232779
0.000228915
0.000219816
0.000200443
0.000162983
0.000102145
4.12396e-05
2.7605e-05
2.83786e-05
4.35902e-05
0.000107129
0.000168068
0.000204157
0.000222116
0.000230168
0.000233357
0.000234347
0.000234449
0.000234261
0.000234031
0.000233848
0.000233731
0.000233674
0.000233675
0.000233732
0.00023385
0.000234033
0.000234263
0.000234451
0.000234347
0.000233354
0.000230161
0.000222104
0.000204137
0.000168038
0.000107098
4.35811e-05
2.83806e-05
2.88959e-05
4.52028e-05
0.000110488
0.000171464
0.000206575
0.000223577
0.000230936
0.000233689
0.000234431
0.000234406
0.000234162
0.000233915
0.000233732
0.000233619
0.000233567
0.000233567
0.000233619
0.000233732
0.000233915
0.000234162
0.000234405
0.000234427
0.000233681
0.000230925
0.00022356
0.000206551
0.000171435
0.000110457
4.51939e-05
2.88977e-05
2.91545e-05
4.60245e-05
0.000112182
0.000173158
0.000207765
0.000224285
0.0002313
0.000233839
0.000234463
0.000234379
0.000234111
0.000233858
0.000233676
0.000233567
0.000233517
0.000233517
0.000233567
0.000233676
0.000233857
0.000234109
0.000234376
0.000234457
0.00023383
0.000231287
0.000224268
0.000207742
0.000173131
0.000112152
4.60159e-05
2.91562e-05
2.91545e-05
4.60243e-05
0.000112181
0.000173157
0.000207764
0.000224284
0.000231299
0.000233838
0.000234462
0.000234378
0.00023411
0.000233857
0.000233676
0.000233566
0.000233516
0.000233516
0.000233566
0.000233675
0.000233856
0.000234108
0.000234375
0.000234456
0.00023383
0.000231287
0.000224267
0.000207741
0.00017313
0.000112151
4.60157e-05
2.91562e-05
2.88958e-05
4.52023e-05
0.000110485
0.00017146
0.000206571
0.000223574
0.000230933
0.000233686
0.000234429
0.000234404
0.00023416
0.000233913
0.000233729
0.000233616
0.000233564
0.000233564
0.000233617
0.00023373
0.000233913
0.00023416
0.000234403
0.000234425
0.00023368
0.000230923
0.000223558
0.000206549
0.000171432
0.000110456
4.51933e-05
2.88978e-05
2.83785e-05
4.35893e-05
0.000107125
0.000168062
0.000204152
0.000222111
0.000230164
0.000233353
0.000234343
0.000234446
0.000234257
0.000234027
0.000233844
0.000233726
0.00023367
0.00023367
0.000233727
0.000233846
0.00023403
0.000234259
0.000234448
0.000234344
0.000233351
0.000230158
0.0002221
0.000204133
0.000168034
0.000107096
4.35801e-05
2.83808e-05
2.76024e-05
4.12475e-05
0.000102169
0.000163002
0.00020045
0.000219815
0.000228909
0.000232769
0.000234154
0.000234468
0.000234381
0.000234193
0.000234021
0.000233902
0.000233844
0.000233845
0.000233904
0.000234025
0.000234198
0.000234388
0.000234475
0.00023416
0.000232774
0.00022891
0.000219811
0.000200438
0.000162979
0.000102142
4.12383e-05
2.76051e-05
2.65673e-05
3.82674e-05
9.57187e-05
0.000156258
0.000195375
0.000216554
0.000227024
0.000231798
0.000233744
0.00023438
0.000234468
0.000234365
0.000234231
0.000234126
0.000234072
0.000234073
0.000234129
0.000234236
0.000234373
0.000234478
0.000234392
0.000233757
0.00023181
0.000227034
0.00021656
0.000195374
0.000156244
9.5697e-05
3.82586e-05
2.65705e-05
2.52731e-05
3.47641e-05
8.79239e-05
0.000147811
0.00018886
0.000212133
0.00022424
0.000230165
0.000232863
0.000233966
0.000234333
0.000234392
0.000234346
0.000234288
0.000234254
0.000234255
0.000234292
0.000234353
0.000234401
0.000234347
0.000233984
0.000232882
0.000230185
0.00022426
0.00021215
0.000188871
0.000147811
8.79098e-05
3.4756e-05
2.52768e-05
2.37199e-05
3.08737e-05
7.9e-05
0.000137725
0.000181011
0.000206106
0.000220025
0.000227333
0.000230997
0.000232753
0.000233551
0.000233892
0.000234025
0.000234071
0.000234085
0.000234086
0.000234074
0.000234032
0.000233903
0.000233568
0.000232774
0.000231023
0.000227361
0.000220054
0.000206133
0.000181025
0.000137739
7.89954e-05
3.08668e-05
2.3724e-05
2.19071e-05
2.67515e-05
6.91639e-05
0.000125688
0.00016993
0.000197417
0.000213421
0.000222307
0.000227143
0.000229768
0.000231207
0.000232008
0.000232461
0.000232709
0.000232821
0.000232821
0.000232712
0.000232468
0.00023202
0.000231224
0.000229793
0.000227172
0.00022234
0.000213458
0.000197458
0.000169971
0.000125724
6.91711e-05
2.67463e-05
2.19112e-05
1.98202e-05
2.25579e-05
5.86392e-05
0.000111634
0.000155877
0.000185207
0.000202911
0.000213261
0.000219398
0.000223133
0.000225478
0.000226993
0.000227974
0.000228571
0.000228855
0.000228856
0.000228574
0.000227981
0.000227005
0.000225496
0.000223158
0.00021943
0.000213298
0.000202953
0.000185258
0.000155933
0.000111687
5.86586e-05
2.25553e-05
1.98232e-05
1.74863e-05
1.84164e-05
4.77754e-05
9.53771e-05
0.000137951
0.00016734
0.000185475
0.000196851
0.000204362
0.000209444
0.000213006
0.000215554
0.000217335
0.000218474
0.00021903
0.000219031
0.000218476
0.000217342
0.000215566
0.000213024
0.000209468
0.000204397
0.000196891
0.000185517
0.000167401
0.000138005
9.54361e-05
4.78064e-05
1.8416e-05
1.74887e-05
1.49235e-05
1.44768e-05
3.69379e-05
7.62996e-05
0.000113371
0.000139204
0.000156047
0.000167882
0.000176779
0.000183236
0.00018825
0.000192123
0.000194954
0.000196812
0.000197733
0.000197733
0.000196813
0.000194958
0.000192134
0.000188268
0.000183245
0.000176812
0.000167928
0.000156083
0.00013923
0.000113401
7.63502e-05
3.69688e-05
1.44765e-05
1.49247e-05
1.21558e-05
1.08385e-05
2.61082e-05
5.27049e-05
7.82839e-05
9.63876e-05
0.000109897
0.00012096
0.000130275
0.000138007
0.000144346
0.000149379
0.000153142
0.000155648
0.000156898
0.000156895
0.000155641
0.000153137
0.000149382
0.000144364
0.000138038
0.00013032
0.000121011
0.000109939
9.64146e-05
7.83056e-05
5.27443e-05
2.61365e-05
1.08373e-05
1.21557e-05
9.22492e-06
7.13035e-06
1.45405e-05
2.61686e-05
3.68846e-05
4.62497e-05
5.48109e-05
6.28318e-05
7.01265e-05
7.65593e-05
8.20565e-05
8.65698e-05
9.003e-05
9.23693e-05
9.35461e-05
9.35417e-05
9.23572e-05
9.00138e-05
8.65566e-05
8.20526e-05
7.6566e-05
7.01411e-05
6.28505e-05
5.48301e-05
4.62671e-05
3.6898e-05
2.6186e-05
1.45529e-05
7.12613e-06
9.22377e-06
5.7493e-06
1.27953e-06
5.159e-06
9.07654e-06
1.31594e-05
1.70379e-05
2.07003e-05
2.41067e-05
2.71907e-05
2.9931e-05
3.23051e-05
3.4284e-05
3.58156e-05
3.68578e-05
3.73846e-05
3.7383e-05
3.68534e-05
3.5809e-05
3.42766e-05
3.22985e-05
2.99269e-05
2.71876e-05
2.4104e-05
2.06981e-05
1.70363e-05
1.31583e-05
9.07618e-06
5.15826e-06
1.27887e-06
5.74814e-06
3.94994e-06
6.70353e-06
9.36174e-06
1.17409e-05
1.40528e-05
1.62099e-05
1.81676e-05
1.98204e-05
2.12416e-05
2.24552e-05
2.34591e-05
2.42518e-05
2.4843e-05
2.52362e-05
2.54327e-05
2.54333e-05
2.52379e-05
2.48459e-05
2.42557e-05
2.34637e-05
2.24593e-05
2.12458e-05
1.98246e-05
1.81714e-05
1.6213e-05
1.40547e-05
1.17413e-05
9.36088e-06
6.70202e-06
3.94893e-06
3.56579e-06
6.0959e-06
8.7004e-06
1.10709e-05
1.34416e-05
1.5683e-05
1.77498e-05
1.95258e-05
2.10611e-05
2.23843e-05
2.35005e-05
2.4411e-05
2.5098e-05
2.55569e-05
2.57862e-05
2.57851e-05
2.55537e-05
2.50926e-05
2.44035e-05
2.34912e-05
2.2376e-05
2.10519e-05
1.95156e-05
1.77366e-05
1.56718e-05
1.34344e-05
1.10689e-05
8.703e-06
6.10104e-06
3.56931e-06
5.1275e-06
1.62087e-06
7.48103e-06
1.10609e-05
1.46436e-05
1.76487e-05
2.02135e-05
2.26121e-05
2.47042e-05
2.64963e-05
2.79858e-05
2.91658e-05
3.00489e-05
3.064e-05
3.09378e-05
3.09408e-05
3.06485e-05
3.00615e-05
2.918e-05
2.79974e-05
2.65028e-05
2.47074e-05
2.26145e-05
2.02187e-05
1.76607e-05
1.46604e-05
1.10794e-05
7.49619e-06
1.62759e-06
5.13318e-06
8.69315e-06
1.02648e-05
1.32371e-05
1.66784e-05
2.1825e-05
2.7253e-05
3.22697e-05
3.66623e-05
4.06865e-05
4.43006e-05
4.73952e-05
4.98746e-05
5.17407e-05
5.29986e-05
5.36379e-05
5.36501e-05
5.30346e-05
5.17968e-05
4.9938e-05
4.74285e-05
4.43145e-05
4.0684e-05
3.66529e-05
3.22572e-05
2.72384e-05
2.18146e-05
1.66697e-05
1.3241e-05
1.03123e-05
8.69839e-06
1.15725e-05
1.3474e-05
1.78871e-05
2.56176e-05
3.5792e-05
4.64162e-05
5.58916e-05
6.41699e-05
7.15254e-05
7.81727e-05
8.38711e-05
8.84502e-05
9.18683e-05
9.41374e-05
9.52822e-05
9.53136e-05
9.4229e-05
9.20109e-05
8.86225e-05
8.40337e-05
7.82984e-05
7.15653e-05
6.41559e-05
5.58245e-05
4.63143e-05
3.56874e-05
2.5569e-05
1.78758e-05
1.35097e-05
1.15736e-05
1.4422e-05
1.59379e-05
2.27234e-05
3.5787e-05
5.41904e-05
7.34529e-05
8.95795e-05
0.000102257
0.000112581
0.000121489
0.000128762
0.000134408
0.000138498
0.000141102
0.000142382
0.000142402
0.000141161
0.000138595
0.00013455
0.00012889
0.000121584
0.000112578
0.000102155
8.93682e-05
7.31968e-05
5.40111e-05
3.56798e-05
2.26844e-05
1.59655e-05
1.4418e-05
1.71359e-05
1.81425e-05
2.8507e-05
4.69287e-05
7.31059e-05
9.96063e-05
0.000121792
0.000137874
0.000149532
0.00015846
0.000165362
0.000170561
0.000174264
0.000176625
0.000177776
0.000177786
0.000176656
0.000174314
0.000170619
0.000165396
0.000158449
0.000149458
0.000137733
0.000121552
9.93241e-05
7.28682e-05
4.6822e-05
2.846e-05
1.81609e-05
1.71285e-05
1.96476e-05
2.05435e-05
3.38848e-05
5.82155e-05
9.0715e-05
0.000122125
0.000146592
0.000163953
0.000175995
0.000184499
0.000190621
0.000195008
0.000198035
0.000199935
0.000200852
0.000200857
0.000199948
0.000198052
0.000195018
0.000190608
0.000184454
0.000175915
0.000163834
0.000146426
0.00012191
9.05493e-05
5.81593e-05
3.38555e-05
2.05438e-05
1.9641e-05
2.19481e-05
2.30283e-05
3.90077e-05
6.89207e-05
0.000105964
0.000139605
0.000164606
0.000181971
0.000193648
0.000201464
0.000206738
0.000210299
0.000212647
0.000214076
0.000214753
0.000214754
0.000214078
0.000212646
0.000210288
0.000206708
0.000201413
0.000193576
0.000181879
0.000164496
0.000139494
0.000105908
6.8938e-05
3.89948e-05
2.30298e-05
2.194e-05
2.40492e-05
2.53445e-05
4.39118e-05
7.89211e-05
0.000119058
0.000153137
0.000177679
0.000194284
0.000205126
0.000212081
0.000216516
0.000219334
0.000221091
0.000222115
0.000222586
0.000222586
0.000222111
0.000221082
0.000219315
0.000216483
0.000212033
0.000205067
0.000194217
0.000177611
0.000153091
0.000119081
7.89826e-05
4.39142e-05
2.5349e-05
2.40421e-05
2.58913e-05
2.74281e-05
4.83572e-05
8.76207e-05
0.000130244
0.000163768
0.000187257
0.000202733
0.000212535
0.000218575
0.00022223
0.000224411
0.000225685
0.000226387
0.000226697
0.000226696
0.000226381
0.000225674
0.000224392
0.000222201
0.000218537
0.000212491
0.000202688
0.000187218
0.00016375
0.000130268
8.7693e-05
4.83724e-05
2.74355e-05
2.58857e-05
2.74526e-05
2.92444e-05
5.22257e-05
9.47872e-05
0.000138635
0.000171788
0.000194212
0.000208534
0.000217305
0.000222492
0.000225468
0.000227128
0.000228026
0.000228484
0.000228675
0.000228674
0.000228479
0.000228016
0.000227112
0.000225445
0.000222465
0.000217277
0.000208509
0.000194196
0.000171791
0.00013867
9.48553e-05
5.22508e-05
2.92541e-05
2.74483e-05
2.8718e-05
3.07563e-05
5.54529e-05
0.000100516
0.000145004
0.00017769
0.000199166
0.000212475
0.000220354
0.000224824
0.00022725
0.000228509
0.000229128
0.000229412
0.000229519
0.000229518
0.000229408
0.000229121
0.000228498
0.000227237
0.000224809
0.000220342
0.000212467
0.000199168
0.000177708
0.000145043
0.00010057
5.54816e-05
3.07672e-05
2.87148e-05
2.96763e-05
3.19281e-05
5.79639e-05
0.000104862
0.000149666
0.000181875
0.00020257
0.000215076
0.00022226
0.000226182
0.000228202
0.000229172
0.000229598
0.000229764
0.000229817
0.000229816
0.000229762
0.000229594
0.000229166
0.000228196
0.000226177
0.000222259
0.000215081
0.000202584
0.000181901
0.000149704
0.000104901
5.79925e-05
3.19392e-05
2.96739e-05
3.03195e-05
3.27293e-05
5.96863e-05
0.000107819
0.000152753
0.000184577
0.00020471
0.000216659
0.000223372
0.000226928
0.000228681
0.000229467
0.000229773
0.000229868
0.000229888
0.000229888
0.000229867
0.000229772
0.000229466
0.000228681
0.00022693
0.000223378
0.000216672
0.00020473
0.000184605
0.000152787
0.000107848
5.97129e-05
3.27398e-05
3.03175e-05
3.06423e-05
3.31386e-05
6.05653e-05
0.00010931
0.000154293
0.000185906
0.000205745
0.00021741
0.000223885
0.000227258
0.00022888
0.000229577
0.000229826
0.000229888
0.000229892
0.000229892
0.000229887
0.000229826
0.000229577
0.000228882
0.000227263
0.000223894
0.000217426
0.000205768
0.000185934
0.000154324
0.000109333
6.05883e-05
3.31472e-05
3.06405e-05
3.06424e-05
3.31385e-05
6.05654e-05
0.000109311
0.000154295
0.000185908
0.000205747
0.000217412
0.000223886
0.000227259
0.000228881
0.000229578
0.000229827
0.000229888
0.000229892
0.000229892
0.000229888
0.000229826
0.000229578
0.000228883
0.000227264
0.000223895
0.000217427
0.000205769
0.000185935
0.000154325
0.000109334
6.05878e-05
3.31469e-05
3.06406e-05
3.03199e-05
3.27287e-05
5.96863e-05
0.000107822
0.000152758
0.000184582
0.000204715
0.000216664
0.000223376
0.000226931
0.000228684
0.00022947
0.000229776
0.000229871
0.00022989
0.00022989
0.000229869
0.000229774
0.000229467
0.000228682
0.000226932
0.000223381
0.000216674
0.000204733
0.000184608
0.00015279
0.000107851
5.9711e-05
3.27386e-05
3.03177e-05
2.9677e-05
3.1927e-05
5.79637e-05
0.000104867
0.000149674
0.000181884
0.000202578
0.000215083
0.000222267
0.000226187
0.000228207
0.000229177
0.000229603
0.000229769
0.000229822
0.000229821
0.000229766
0.000229598
0.00022917
0.0002282
0.000226182
0.000222264
0.000215086
0.000202589
0.000181906
0.000149709
0.000104905
5.79896e-05
3.19373e-05
2.96743e-05
2.87188e-05
3.07549e-05
5.54523e-05
0.000100523
0.000145015
0.000177701
0.000199177
0.000212485
0.000220364
0.000224832
0.000227259
0.000228517
0.000229137
0.00022942
0.000229528
0.000229526
0.000229416
0.000229128
0.000228505
0.000227244
0.000224817
0.00022035
0.000212476
0.000199177
0.000177715
0.00014505
0.000100575
5.54779e-05
3.07649e-05
2.87154e-05
2.74535e-05
2.92428e-05
5.22228e-05
9.47959e-05
0.000138647
0.000171802
0.000194225
0.000208546
0.000217317
0.000222504
0.00022548
0.000227141
0.000228039
0.000228498
0.000228689
0.000228687
0.000228491
0.000228028
0.000227124
0.000225458
0.000222478
0.00021729
0.000208522
0.000194209
0.000171802
0.000138678
9.48583e-05
5.22444e-05
2.92515e-05
2.74491e-05
2.58922e-05
2.74267e-05
4.83536e-05
8.76315e-05
0.000130257
0.000163782
0.000187271
0.000202748
0.00021255
0.000218591
0.000222247
0.00022443
0.000225705
0.000226407
0.000226717
0.000226715
0.0002264
0.000225692
0.00022441
0.000222219
0.000218555
0.00021251
0.000202707
0.000187235
0.000163764
0.000130276
8.76951e-05
4.83664e-05
2.74331e-05
2.58868e-05
2.40501e-05
2.53435e-05
4.39079e-05
7.89332e-05
0.000119074
0.000153152
0.000177694
0.0001943
0.000205143
0.0002121
0.000216539
0.000219359
0.000221118
0.000222142
0.000222613
0.000222612
0.000222137
0.000221107
0.000219339
0.000216507
0.000212057
0.00020509
0.00019424
0.000177633
0.000153107
0.000119089
7.89846e-05
4.39097e-05
2.53474e-05
2.40436e-05
2.19488e-05
2.30278e-05
3.9003e-05
6.89307e-05
0.000105976
0.000139616
0.00016462
0.000181987
0.000193667
0.000201488
0.000206767
0.000210332
0.000212682
0.000214111
0.000214788
0.000214788
0.000214111
0.000212678
0.000210318
0.000206737
0.000201441
0.000193603
0.000181906
0.000164522
0.000139514
0.000105919
6.89416e-05
3.89919e-05
2.30295e-05
2.19418e-05
1.96483e-05
2.05439e-05
3.3878e-05
5.8215e-05
9.07172e-05
0.000122131
0.000146603
0.000163969
0.000176017
0.00018453
0.000190659
0.000195051
0.00019808
0.000199978
0.000200893
0.000200897
0.000199987
0.00019809
0.000195054
0.000190642
0.000184485
0.000175943
0.000163862
0.000146454
0.000121937
9.05647e-05
5.81621e-05
3.38525e-05
2.05449e-05
1.96428e-05
1.7137e-05
1.81495e-05
2.84978e-05
4.69226e-05
7.31013e-05
9.96084e-05
0.000121803
0.000137892
0.000149561
0.000158502
0.000165414
0.000170619
0.00017432
0.000176676
0.000177824
0.000177832
0.0001767
0.000174358
0.000170661
0.000165435
0.000158484
0.000149488
0.000137762
0.000121586
9.93553e-05
7.2888e-05
4.68255e-05
2.84536e-05
1.81689e-05
1.71312e-05
1.44232e-05
1.59445e-05
2.27179e-05
3.57806e-05
5.41838e-05
7.3454e-05
8.95937e-05
0.000102285
0.000112627
0.000121554
0.000128834
0.000134486
0.000138566
0.000141164
0.000142441
0.000142457
0.000141212
0.000138642
0.000134597
0.000128932
0.000121622
0.000112611
0.000102184
8.93996e-05
7.32242e-05
5.40231e-05
3.56848e-05
2.26812e-05
1.59717e-05
1.44206e-05
1.1574e-05
1.34799e-05
1.78885e-05
2.56123e-05
3.57867e-05
4.64149e-05
5.5898e-05
6.41869e-05
7.15552e-05
7.82261e-05
8.39359e-05
8.85249e-05
9.19442e-05
9.42105e-05
9.53512e-05
9.53779e-05
9.42876e-05
9.20616e-05
8.8662e-05
8.40661e-05
7.83244e-05
7.15819e-05
6.41662e-05
5.58319e-05
4.63207e-05
3.56922e-05
2.55659e-05
1.78794e-05
1.35138e-05
1.15757e-05
8.69455e-06
1.0271e-05
1.32389e-05
1.66765e-05
2.18206e-05
2.72468e-05
3.2267e-05
3.66622e-05
4.06887e-05
4.43063e-05
4.74058e-05
4.99009e-05
5.17685e-05
5.30255e-05
5.36633e-05
5.36739e-05
5.30563e-05
5.18145e-05
4.99398e-05
4.74273e-05
4.43132e-05
4.06824e-05
3.66499e-05
3.22517e-05
2.72294e-05
2.18078e-05
1.66662e-05
1.32422e-05
1.03118e-05
8.69965e-06
5.12841e-06
1.62162e-06
7.48321e-06
1.10641e-05
1.46478e-05
1.76533e-05
2.02172e-05
2.26143e-05
2.47062e-05
2.64985e-05
2.79889e-05
2.91696e-05
3.00525e-05
3.0643e-05
3.09402e-05
3.09425e-05
3.06496e-05
3.00621e-05
2.91799e-05
2.7997e-05
2.65024e-05
2.47078e-05
2.26161e-05
2.02253e-05
1.76671e-05
1.46652e-05
1.10821e-05
7.49781e-06
1.62791e-06
5.13389e-06
3.5662e-06
6.09641e-06
8.70056e-06
1.10707e-05
1.3441e-05
1.56821e-05
1.77487e-05
1.95251e-05
2.10606e-05
2.23838e-05
2.34995e-05
2.44102e-05
2.50973e-05
2.55564e-05
2.57859e-05
2.5785e-05
2.55537e-05
2.50928e-05
2.44039e-05
2.34919e-05
2.23771e-05
2.10532e-05
1.9517e-05
1.77386e-05
1.56738e-05
1.34361e-05
1.10701e-05
8.70374e-06
6.10133e-06
3.56953e-06
3.36304e-06
5.7184e-06
8.23743e-06
1.05626e-05
1.28988e-05
1.51067e-05
1.71331e-05
1.8872e-05
2.03982e-05
2.17183e-05
2.28226e-05
2.37045e-05
2.43688e-05
2.48138e-05
2.50378e-05
2.50399e-05
2.482e-05
2.43789e-05
2.37183e-05
2.28394e-05
2.17362e-05
2.04175e-05
1.88918e-05
1.71543e-05
1.51235e-05
1.29087e-05
1.0565e-05
8.23348e-06
5.71067e-06
3.35734e-06
4.87617e-06
2.51235e-06
1.06872e-05
1.59515e-05
2.1016e-05
2.55229e-05
2.93814e-05
3.23781e-05
3.46742e-05
3.63971e-05
3.76931e-05
3.86645e-05
3.93651e-05
3.98226e-05
4.00503e-05
4.00537e-05
3.98326e-05
3.93814e-05
3.86862e-05
3.77196e-05
3.64268e-05
3.47039e-05
3.24026e-05
2.93898e-05
2.55092e-05
2.09856e-05
1.59161e-05
1.06582e-05
2.48856e-06
4.86661e-06
8.28525e-06
1.30056e-05
1.72734e-05
2.10846e-05
2.40921e-05
2.71741e-05
3.01834e-05
3.30906e-05
3.59125e-05
3.8385e-05
4.0486e-05
4.22124e-05
4.35323e-05
4.44215e-05
4.48683e-05
4.48677e-05
4.44217e-05
4.35387e-05
4.22331e-05
4.05374e-05
3.84573e-05
3.59977e-05
3.31627e-05
3.02016e-05
2.71767e-05
2.4104e-05
2.11008e-05
1.72647e-05
1.29165e-05
8.27569e-06
1.1062e-05
1.81502e-05
2.32597e-05
2.48957e-05
2.87301e-05
3.4845e-05
4.15456e-05
4.78178e-05
5.32723e-05
5.78034e-05
6.16032e-05
6.47312e-05
6.71388e-05
6.87701e-05
6.95803e-05
6.95523e-05
6.86883e-05
6.70107e-05
6.45719e-05
6.14504e-05
5.76899e-05
5.32683e-05
4.78281e-05
4.15178e-05
3.47521e-05
2.8766e-05
2.49342e-05
2.32392e-05
1.80796e-05
1.10577e-05
1.37995e-05
2.21168e-05
2.63774e-05
2.95505e-05
3.84855e-05
5.08194e-05
6.23187e-05
7.2005e-05
7.99601e-05
8.66078e-05
9.20982e-05
9.6577e-05
0.000100089
0.00010259
0.000103849
0.000103808
0.000102469
9.9889e-05
9.62837e-05
9.188e-05
8.64801e-05
7.99431e-05
7.20722e-05
6.24186e-05
5.07025e-05
3.83097e-05
2.95775e-05
2.63641e-05
2.20604e-05
1.3803e-05
1.64244e-05
2.5578e-05
2.86181e-05
3.59902e-05
5.11026e-05
6.91113e-05
8.65845e-05
0.000101472
0.000113361
0.000122592
0.000129752
0.000135255
0.000139312
0.000141954
0.000143247
0.00014322
0.000141867
0.000139135
0.000135045
0.0001296
0.000122541
0.00011343
0.000101657
8.68924e-05
6.92622e-05
5.10836e-05
3.60026e-05
2.86131e-05
2.55467e-05
1.64345e-05
1.88979e-05
2.82443e-05
3.10229e-05
4.37092e-05
6.33992e-05
8.69244e-05
0.000110288
0.000129032
0.000142809
0.000152912
0.000160359
0.000165811
0.000169659
0.000172108
0.000173292
0.000173279
0.000172069
0.000169595
0.000165752
0.000160342
0.000152961
0.000142923
0.000129214
0.000110561
8.72046e-05
6.35125e-05
4.37319e-05
3.10846e-05
2.82476e-05
1.89094e-05
2.11748e-05
3.03501e-05
3.42742e-05
5.09844e-05
7.48647e-05
0.000103561
0.000130016
0.000150142
0.000164641
0.000174928
0.000182196
0.000187286
0.000190738
0.000192877
0.000193899
0.000193896
0.000192868
0.000190728
0.00018729
0.000182229
0.000174998
0.000164748
0.000150286
0.000130185
0.000103706
7.48891e-05
5.0948e-05
3.43486e-05
3.03611e-05
2.11877e-05
2.32077e-05
3.20268e-05
3.76557e-05
5.7299e-05
8.49227e-05
0.000117798
0.000145318
0.0001657
0.00018013
0.000190131
0.000196977
0.000201595
0.000204612
0.000206428
0.000207281
0.000207282
0.000206433
0.000204623
0.000201619
0.000197022
0.000190198
0.000180215
0.000165799
0.000145413
0.000117828
8.48347e-05
5.72265e-05
3.77156e-05
3.20381e-05
2.32194e-05
2.49964e-05
3.33948e-05
4.09704e-05
6.32888e-05
9.4893e-05
0.00012963
0.00015711
0.000177068
0.000190971
0.000200416
0.000206709
0.000210816
0.000213407
0.00021492
0.000215617
0.000215619
0.000214929
0.000213423
0.000210843
0.000206749
0.000200468
0.000191032
0.00017713
0.000157156
0.000129626
9.48076e-05
6.32127e-05
4.10036e-05
3.34053e-05
2.50063e-05
2.65218e-05
3.45142e-05
4.39912e-05
6.86007e-05
0.000103546
0.000138867
0.000166
0.000185286
0.000198482
0.000207267
0.000212975
0.000216587
0.000218789
0.000220035
0.000220595
0.000220598
0.000220042
0.000218803
0.000216608
0.000213004
0.000207303
0.000198518
0.000185316
0.000166011
0.000138838
0.000103461
6.85352e-05
4.39955e-05
3.45239e-05
2.65299e-05
2.77659e-05
3.54154e-05
4.64984e-05
7.29874e-05
0.000110463
0.000145901
0.000172525
0.000191107
0.000203597
0.000211747
0.000216914
0.000220088
0.00022196
0.000222984
0.000223433
0.000223435
0.000222989
0.000221969
0.000220101
0.000216931
0.000211765
0.000203612
0.000191111
0.00017251
0.000145858
0.000110392
7.29464e-05
4.64971e-05
3.54244e-05
2.77724e-05
2.87133e-05
3.61069e-05
4.8429e-05
7.63032e-05
0.00011559
0.000150979
0.000177105
0.000195072
0.000206962
0.000214581
0.000219305
0.00022213
0.000223744
0.000224599
0.000224965
0.000224965
0.000224602
0.000223748
0.000222135
0.000219311
0.000214584
0.00020696
0.000195058
0.000177076
0.000150934
0.000115541
7.62872e-05
4.84283e-05
3.61142e-05
2.87184e-05
2.93519e-05
3.65853e-05
4.97604e-05
7.84985e-05
0.000118961
0.000154272
0.000180022
0.00019754
0.000208999
0.00021624
0.000220653
0.000223237
0.000224676
0.000225418
0.000225727
0.000225728
0.000225418
0.000224677
0.000223237
0.000220652
0.000216234
0.000208986
0.000197517
0.000179988
0.000154231
0.000118929
7.84978e-05
4.97601e-05
3.65873e-05
2.93559e-05
2.96737e-05
3.68593e-05
5.04439e-05
7.96023e-05
0.000120631
0.000155891
0.000181442
0.000198725
0.00020996
0.000217005
0.000221259
0.000223719
0.00022507
0.000225755
0.000226037
0.000226037
0.000225755
0.000225069
0.000223717
0.000221254
0.000216995
0.000209943
0.000198699
0.000181407
0.000155855
0.000120609
7.96085e-05
5.0442e-05
3.68407e-05
2.96769e-05
2.96734e-05
3.68598e-05
5.04441e-05
7.96021e-05
0.000120631
0.000155891
0.000181441
0.000198724
0.000209959
0.000217005
0.000221259
0.00022372
0.000225071
0.000225756
0.000226038
0.000226038
0.000225756
0.000225071
0.000223718
0.000221255
0.000216997
0.000209944
0.0001987
0.000181408
0.000155856
0.000120609
7.96072e-05
5.04423e-05
3.68417e-05
2.96766e-05
2.93507e-05
3.6582e-05
4.97607e-05
7.84975e-05
0.000118961
0.000154271
0.00018002
0.000197539
0.000208999
0.000216241
0.000220655
0.000223238
0.000224678
0.00022542
0.00022573
0.000225731
0.000225421
0.00022468
0.00022324
0.000220655
0.000216237
0.000208989
0.00019752
0.00017999
0.000154233
0.00011893
7.84945e-05
4.97607e-05
3.65842e-05
2.93549e-05
2.87113e-05
3.61009e-05
4.84294e-05
7.63014e-05
0.00011559
0.000150977
0.000177102
0.000195069
0.000206961
0.000214581
0.000219306
0.000222131
0.000223746
0.000224602
0.000224968
0.000224969
0.000224605
0.000223752
0.000222139
0.000219314
0.000214588
0.000206963
0.000195061
0.00017708
0.000150938
0.000115544
7.62836e-05
4.84295e-05
3.61081e-05
2.87166e-05
2.77633e-05
3.54074e-05
4.6501e-05
7.29859e-05
0.000110463
0.000145898
0.00017252
0.000191102
0.000203594
0.000211746
0.000216913
0.000220088
0.00022196
0.000222985
0.000223435
0.000223437
0.000222991
0.000221971
0.000220104
0.000216933
0.000211767
0.000203613
0.000191112
0.000172513
0.000145863
0.0001104
7.29461e-05
4.65012e-05
3.54157e-05
2.77697e-05
2.65188e-05
3.45056e-05
4.40117e-05
6.86034e-05
0.000103546
0.000138862
0.000165993
0.000185279
0.000198476
0.000207263
0.000212971
0.000216583
0.000218786
0.000220032
0.000220593
0.000220596
0.000220041
0.000218802
0.000216607
0.000213003
0.0002073
0.000198516
0.000185314
0.000166011
0.000138844
0.000103475
6.8546e-05
4.40218e-05
3.45142e-05
2.65264e-05
2.49931e-05
3.33864e-05
4.09957e-05
6.3289e-05
9.48882e-05
0.000129623
0.000157103
0.000177061
0.000190963
0.000200407
0.0002067
0.000210806
0.000213398
0.000214911
0.000215608
0.000215612
0.000214921
0.000213416
0.000210836
0.000206742
0.000200461
0.000191024
0.000177123
0.000157153
0.000129631
9.48226e-05
6.32257e-05
4.10311e-05
3.33952e-05
2.50021e-05
2.32044e-05
3.20192e-05
3.76823e-05
5.72947e-05
8.49106e-05
0.000117792
0.000145312
0.000165691
0.000180119
0.000190118
0.000196961
0.000201576
0.000204593
0.00020641
0.000207265
0.000207267
0.000206417
0.000204608