/*--------------------------------*- C++ -*----------------------------------*\
| =========                 |                                                 |
| \\      /  F ield         | OpenFOAM: The Open Source CFD Toolbox           |
|  \\    /   O peration     | Version:  2312                                  |
|   \\  /    A nd           | Website:  www.openfoam.com                      |
|    \\/     M anipulation  |                                                 |
\*---------------------------------------------------------------------------*/
FoamFile
{
    version     2.0;
    format      ascii;
    arch        "LSB;label=32;scalar=64";
    class       surfaceScalarField;
    location    "550";
    object      phi;
}
// * * * * * * * * * * * * * * * * * * * * * * * * * * * * * * * * * * * * * //

dimensions      [1 0 -1 0 0 0 0];

oriented        oriented;

internalField   nonuniform List<scalar> 
78300
(
-2.86233e-05
0.000247887
0.00754013
0.00280443
0.00124661
0.00975839
0.0028146
0.00462861
0.0149986
0.00311196
0.00522085
0.0196067
0.00334948
0.00584711
0.0241856
0.00349578
0.0063827
0.0285153
0.00352897
0.00685987
0.0325277
0.00343413
0.00726025
0.0362094
0.00320179
0.00757949
0.0395374
0.00284386
0.00782723
0.0424609
0.00238257
0.00801515
0.044941
0.00184073
0.00815449
0.0469513
0.00124074
0.00825211
0.0484739
0.000603745
0.00831338
0.049496
-5.02404e-05
0.00834223
0.0500087
-0.000701683
0.00834059
0.0500078
-0.00133095
0.00830837
0.0494932
-0.0019177
0.00824344
0.0484694
-0.00244054
0.00814196
0.0469448
-0.00287674
0.00799849
0.0449325
-0.00320378
0.00780651
0.0424507
-0.00340079
0.00755545
0.0395261
-0.00345938
0.00723535
0.036198
-0.00339473
0.00683893
0.0325171
-0.00322769
0.00637083
0.0285065
-0.00298505
0.00584801
0.0241796
-0.00270093
0.00523649
0.0196043
-0.00274057
0.00467757
0.0149994
5.56989e-05
0.00128029
0.0097615
0.000270675
0.00754441
0.00319418
0.0043622
0.00971321
0.00544734
0.00398918
0.0178939
0.00647995
0.00717689
0.0249072
0.00671861
0.0080556
0.0307123
0.00673595
0.00862605
0.0359567
0.00659976
0.00907372
0.0408073
0.00633306
0.00944903
0.0452649
0.00592833
0.00976725
0.0493027
0.00537617
0.0100262
0.0528992
0.0046834
0.0102252
0.0560292
0.00387027
0.0103713
0.0586678
0.00296365
0.0104735
0.0607963
0.00198953
0.010541
0.0624023
0.000972398
0.0105807
0.0634771
-6.39769e-05
0.0105973
0.0640152
-0.00109656
0.0105935
0.0640136
-0.00210236
0.0105692
0.0634723
-0.00305816
0.0105221
0.0623942
-0.00393989
0.0104474
0.060785
-0.00472294
0.0103388
0.0586535
-0.00538287
0.0101882
0.0560127
-0.00590324
0.00998785
0.0528817
-0.00628242
0.00973317
0.0492864
-0.00653449
0.00942629
0.045252
-0.0066717
0.00906978
0.0408004
-0.00667264
0.00864432
0.0359576
-0.00646952
0.00809806
0.030721
-0.00545696
0.00723196
0.0249211
-0.00324247
0.00404588
0.0179096
0.00433113
0.00971877
0.00685233
0.00387529
0.0199012
0.00952958
0.00594911
0.0272896
0.010333
0.00859206
0.0351086
0.0100706
0.00938903
0.0413666
0.00947035
0.00977516
0.0466807
0.00877816
0.0100375
0.0514046
0.00804206
0.0102577
0.0556801
0.00725471
0.0104577
0.0595329
0.00639897
0.0106341
0.0629535
0.00546508
0.0107784
0.0659238
0.00445585
0.0108874
0.0684257
0.00338226
0.0109637
0.0704438
0.00225994
0.0110125
0.0719667
0.00110616
0.0110395
0.0729858
-6.1361e-05
0.0110489
0.0734955
-0.00122487
0.0110433
0.0734933
-0.0023668
0.0110228
0.0729792
-0.00347011
0.0109854
0.071956
-0.00451928
0.0109275
0.0704295
-0.00550102
0.0108444
0.0684087
-0.00640773
0.0107325
0.0659056
-0.00724119
0.0105907
0.0629363
-0.00801567
0.0104241
0.0595196
-0.00875173
0.010241
0.0556741
-0.00945781
0.0100435
0.0514086
-0.0100842
0.00980499
0.0466953
-0.0103729
0.00943603
0.0413884
-0.00958264
0.00863982
0.0351291
-0.00687563
0.00596252
0.0273031
0.00381714
0.019905
0.00697589
0.00436643
0.0279053
0.010139
0.0067733
0.0368429
0.0110661
0.00908751
0.0446153
0.0108799
0.00976113
0.0507802
0.0102205
0.0100634
0.0559588
0.00938954
0.0102347
0.0605099
0.0084946
0.0103647
0.0645958
0.0075623
0.0104862
0.0682645
0.00659224
0.0106015
0.0715171
0.00557843
0.0107036
0.0743403
0.00451829
0.0107854
0.0767186
0.00341543
0.0108447
0.0786382
0.00227805
0.010883
0.0800874
0.00111776
0.0109032
0.0810575
-5.25291e-05
0.0109088
0.0815429
-0.00121895
0.0109016
0.0815406
-0.00236849
0.0108823
0.0810509
-0.00348907
0.0108496
0.0800768
-0.00457121
0.0108014
0.0786245
-0.00560947
0.0107358
0.0767034
-0.00660406
0.010653
0.0743256
-0.00756128
0.0105567
0.0715057
-0.00849012
0.0104541
0.0682595
-0.00939275
0.0103514
0.0646001
-0.0102406
0.0102424
0.0605251
-0.0109212
0.01009
0.0559831
-0.0111227
0.00979688
0.0508067
-0.0101907
0.00911145
0.0446342
-0.00700519
0.0067568
0.0368504
0.00427931
0.0279049
0.00788986
0.00462048
0.0360747
0.0108297
0.00727285
0.0460427
0.0114825
0.00920055
0.0537386
0.011201
0.0097143
0.0595861
0.0105114
0.00993908
0.0645293
0.009641
0.0100538
0.0689034
0.00868673
0.0101321
0.0728319
0.00768869
0.0102037
0.0763529
0.00666
0.0102752
0.07947
0.00560309
0.0103426
0.0821737
0.00451754
0.0103998
0.0844508
0.00340453
0.010443
0.0862888
0.00226855
0.0104711
0.0876767
0.00111676
0.0104853
0.0886061
-4.15807e-05
0.0104874
0.0890712
-0.00119691
0.0104792
0.0890692
-0.00233963
0.0104611
0.0886003
-0.00346207
0.0104331
0.0876678
-0.00455896
0.0103944
0.0862779
-0.00562879
0.0103456
0.0844396
-0.00667329
0.0102889
0.0821644
-0.0076957
0.0102289
0.0794652
-0.00869527
0.010171
0.076355
-0.00965804
0.0101168
0.0728424
-0.0105416
0.0100561
0.068922
-0.0112428
0.00995378
0.0645528
-0.0115267
0.00973082
0.0596077
-0.0108605
0.00920034
0.0537494
-0.00789782
0.00723462
0.0460416
0.00453066
0.0360695
0.00854159
0.00472502
0.0440425
0.0113033
0.00741868
0.0548602
0.0117392
0.0090264
0.0623528
0.011353
0.00941275
0.0678898
0.0106287
0.00956857
0.0725992
0.00974061
0.00963839
0.0768008
0.00876563
0.00967947
0.0805861
0.00774099
0.0097162
0.0839793
0.00668538
0.00975457
0.0869809
0.00560679
0.00979302
0.0895822
0.00450819
0.00982751
0.0917721
0.00339138
0.00985436
0.0935392
0.00225941
0.00987154
0.0948734
0.0011169
0.00987904
0.0957668
-3.00022e-05
0.00987768
0.096214
-0.00117445
0.00986859
0.0962124
-0.00231018
0.00985263
0.0957623
-0.00343216
0.0098303
0.0948666
-0.00453766
0.00980234
0.0935313
-0.00562596
0.00977029
0.0917648
-0.00669748
0.0097371
0.0895774
-0.00775091
0.00970649
0.0869804
-0.00877831
0.00968097
0.0839846
-0.00975985
0.00965941
0.0805975
-0.0106547
0.00963174
0.0768166
-0.0113821
0.00956981
0.0726158
-0.0117626
0.009412
0.0679013
-0.0113114
0.00901024
0.0623535
-0.00853483
0.00737433
0.0548514
0.00465048
0.044034
0.00902957
0.00467965
0.051686
0.0115964
0.00728264
0.0631463
0.0118791
0.00861383
0.0703898
0.0114228
0.00890524
0.0756565
0.0106748
0.00900717
0.0801594
0.00977996
0.00904162
0.0842005
0.00879975
0.00905439
0.0878525
0.00776739
0.00906457
0.091129
0.00670185
0.00907745
0.0940268
0.00561373
0.00909249
0.0965372
0.00450852
0.00910721
0.0986495
0.00338957
0.00911872
0.100353
0.00225958
0.00912521
0.10164
0.00112221
0.00912587
0.102501
-1.82185e-05
0.00912107
0.102932
-0.00115704
0.00911158
0.102931
-0.00228988
0.00909835
0.102498
-0.00341341
0.00908245
0.101635
-0.00452552
0.00906527
0.100348
-0.00562499
0.00904879
0.098645
-0.00670996
0.00903559
0.096535
-0.00777545
0.00902799
0.0940282
-0.00881044
0.00902662
0.0911343
-0.00979418
0.00902917
0.0878612
-0.010691
0.00902692
0.0842105
-0.0114365
0.00899799
0.0801673
-0.0118843
0.00889426
0.0756581
-0.0115892
0.00859247
0.0703826
-0.00901612
0.00724525
0.0631331
0.00462898
0.0516755
0.00939094
0.00448494
0.0588611
0.01178
0.006905
0.0707948
0.0119469
0.00799842
0.0777871
0.0114455
0.00821719
0.0828186
0.0106854
0.00827957
0.0871412
0.00979114
0.00828806
0.091037
0.00881424
0.0082803
0.0945658
0.0077837
0.00827108
0.097735
0.00671765
0.00826484
0.100539
0.0056273
0.00826182
0.102967
0.00451964
0.00826049
0.10501
0.00339899
0.00825906
0.106658
0.00226885
0.00825595
0.107902
0.00113239
0.00825048
0.108735
-6.82523e-06
0.00824271
0.109152
-0.00114516
0.00823324
0.109151
-0.00227924
0.00822311
0.108732
-0.00340622
0.00821359
0.107898
-0.00452377
0.00820626
0.106655
-0.00562949
0.00820302
0.105008
-0.0067195
0.0082057
0.102966
-0.00778683
0.00821542
0.10054
-0.0088195
0.00823178
0.0977385
-0.00979791
0.00825189
0.0945705
-0.0106915
0.00826878
0.0910409
-0.0114473
0.00826558
0.0871417
-0.0119408
0.00820381
0.0828131
-0.011766
0.00798085
0.0777754
-0.00937676
0.0068818
0.0707805
0.00445861
0.058851
0.00966659
0.00414439
0.0654261
0.0118966
0.0063198
0.0777139
0.0119725
0.00720734
0.0844709
0.0114399
0.00736961
0.0892986
0.0106745
0.00740378
0.0934644
0.00978509
0.00739478
0.0972308
0.00881621
0.00737346
0.100648
0.00779316
0.0073512
0.10372
0.00673222
0.00733179
0.106439
0.00564441
0.00731585
0.108795
0.00453713
0.00730273
0.110777
0.00341561
0.00729136
0.112375
0.00228384
0.00728078
0.113582
0.00114539
0.0072705
0.11439
3.73051e-06
0.00726057
0.114794
-0.00113773
0.00725157
0.114794
-0.00227569
0.00724451
0.114388
-0.00340705
0.00724066
0.113579
-0.00452876
0.00724152
0.112373
-0.00563709
0.00724853
0.110775
-0.00672686
0.00726284
0.108794
-0.00779027
0.00728476
0.106439
-0.00881552
0.00731315
0.103721
-0.00978533
0.00734526
0.100649
-0.0106735
0.00737529
0.0972297
-0.0114352
0.00739066
0.0934599
-0.0119624
0.00736002
0.0892894
-0.0118826
0.00719903
0.0844578
-0.00965532
0.00631254
0.0777007
0.0041378
0.0654177
0.00987398
0.00367211
0.0712638
0.0119681
0.00555559
0.0838174
0.0119731
0.00626318
0.0903645
0.0114176
0.00638146
0.0950196
0.0106501
0.00639657
0.0990504
0.00976758
0.00637726
0.102703
0.00880911
0.00634837
0.106022
0.00779646
0.00631876
0.109008
0.0067439
0.0062916
0.111653
0.0056615
0.00626771
0.113945
0.00455662
0.00624708
0.115874
0.00343494
0.00622922
0.11743
0.00230107
0.00621372
0.118604
0.00115912
0.00620037
0.11939
1.29838e-05
0.00618936
0.119784
-0.00113352
0.00618126
0.119784
-0.00227659
0.00617699
0.119389
-0.00341243
0.0061777
0.118602
-0.00453696
0.00618459
0.117427
-0.00564547
0.00619868
0.115872
-0.00673193
0.00622051
0.113943
-0.00778835
0.00624978
0.111652
-0.00880399
0.00628514
0.109007
-0.00976394
0.00632398
0.10602
-0.0106461
0.00636171
0.102699
-0.0114115
0.00638848
0.0990432
-0.011964
0.0063793
0.0950092
-0.0119576
0.00626577
0.0903522
-0.0098667
0.00556238
0.0838065
0.00367932
0.0712573
0.010027
0.00308597
0.076278
0.0120082
0.00464069
0.0890281
0.0119588
0.00518802
0.0953961
0.0113866
0.00527189
0.0999084
0.0106191
0.0052749
0.103826
0.00974414
0.00525141
0.107383
0.0087966
0.00522019
0.110618
0.00779521
0.00518823
0.11353
0.00675221
0.00515811
0.116111
0.00567648
0.00513085
0.11835
0.00457508
0.00510674
0.120234
0.00345382
0.00508584
0.121754
0.00231785
0.00506809
0.122901
0.0011719
0.0050536
0.123669
2.05821e-05
0.00504265
0.124054
-0.00113157
0.00503584
0.124054
-0.00227996
0.00503394
0.123668
-0.00341986
0.00503791
0.122899
-0.00454624
0.00504862
0.121751
-0.00565352
0.00506666
0.120231
-0.00673525
0.00509214
0.118347
-0.0077837
0.00512442
0.116109
-0.00878935
0.00516209
0.113527
-0.00973954
0.00520279
0.110613
-0.0106154
0.00524275
0.107377
-0.0113823
0.00527431
0.103818
-0.0119533
0.00527837
0.0998985
-0.0120023
0.00520061
0.0953857
-0.0100233
0.00465781
0.08902
0.00310156
0.0762733
0.0101367
0.00240676
0.0803872
0.012028
0.00360362
0.0932797
0.0119381
0.00400507
0.0995019
0.0113541
0.00406181
0.103901
0.0105874
0.00405827
0.107728
0.00971971
0.00403508
0.111207
0.00878237
0.00400585
0.114373
0.00779159
0.00397568
0.117225
0.00675778
0.00394672
0.119755
0.00568873
0.00392
0.121949
0.00459096
0.00389606
0.123796
0.00347037
0.00387523
0.125287
0.00233247
0.00385777
0.126413
0.00118268
0.00384395
0.127167
2.62947e-05
0.00383417
0.127545
-0.00113128
0.00382896
0.127544
-0.00228458
0.00382898
0.127166
-0.00342795
0.00383492
0.126411
-0.0045555
0.00384733
0.125285
-0.00566103
0.00386649
0.123794
-0.00673784
0.00389218
0.121946
-0.00777865
0.00392365
0.119751
-0.00877502
0.00395947
0.117221
-0.00971621
0.00399765
0.114367
-0.0105859
0.00403509
0.1112
-0.0113531
0.00406604
0.10772
-0.0119368
0.00407649
0.103892
-0.0120264
0.00402553
0.0994938
-0.0101359
0.00362731
0.093274
0.00242644
0.0803839
0.010212
0.00165684
0.0835263
0.0120361
0.00247393
0.0965176
0.0119175
0.00273926
0.102629
0.0113256
0.00277407
0.106943
0.0105602
0.00276802
0.110702
0.00969873
0.00274843
0.114122
0.00876989
0.00272432
0.117236
0.00778796
0.00269917
0.120042
0.00676184
0.00267463
0.122532
0.00569842
0.00265163
0.124693
0.00460374
0.00263082
0.126513
0.00348368
0.00261268
0.127982
0.00234407
0.00259763
0.129092
0.00119084
0.00258604
0.129835
2.99976e-05
0.00257834
0.130207
-0.00113231
0.00257499
0.130207
-0.00228979
0.00257647
0.129833
-0.00343601
0.00258323
0.12909
-0.00456439
0.00259556
0.12798
-0.00566824
0.00261344
0.12651
-0.0067408
0.0026365
0.12469
-0.00777514
0.00266396
0.122528
-0.00876378
0.00269456
0.120038
-0.0096974
0.00272663
0.11723
-0.0105617
0.00275779
0.114115
-0.0113282
0.00278402
0.110695
-0.0119198
0.00279581
0.106936
-0.0120377
0.00276529
0.102623
-0.0102131
0.00250106
0.0965137
0.00167767
0.083524
0.0102591
0.000859243
0.0856461
0.0120386
0.00128172
0.0987
0.011902
0.00141687
0.104737
0.0113056
0.00143313
0.108994
0.0105416
0.00142717
0.112708
0.00968468
0.00141334
0.116088
0.00876194
0.00139648
0.119167
0.00778627
0.00137859
0.121943
0.00676558
0.00136076
0.124406
0.00570603
0.00134378
0.126545
0.00461336
0.00132825
0.128346
0.00349338
0.00131472
0.129801
0.0023522
0.00130364
0.130899
0.0011961
0.00129543
0.131635
3.16513e-05
0.00129048
0.132003
-0.00113442
0.00128913
0.132003
-0.00229522
0.0012917
0.131634
-0.0034437
0.00129839
0.130897
-0.0045728
0.00130924
0.129798
-0.0056755
0.00132404
0.128343
-0.00674502
0.00134238
0.126541
-0.0077747
0.00136349
0.124402
-0.0087577
0.00138638
0.121938
-0.00968571
0.00140978
0.119161
-0.0105457
0.00143209
0.116082
-0.0113109
0.00145082
0.112702
-0.0119069
0.0014607
0.108988
-0.0120424
0.00144669
0.104732
-0.0102613
0.00131016
0.0986971
0.000879517
0.0856444
0.0102821
3.73048e-05
0.0867142
0.0120398
5.73493e-05
0.0997986
0.0118948
6.50815e-05
0.105798
0.0112968
6.44635e-05
0.110027
0.010534
5.9902e-05
0.113718
0.00967973
5.29993e-05
0.117078
0.00876027
4.4542e-05
0.12014
0.00778783
3.51362e-05
0.122901
0.00676977
2.533e-05
0.125351
0.00571192
1.56711e-05
0.127478
0.00461983
6.67206e-06
0.12927
0.00349934
-1.15416e-06
0.130717
0.00235666
-7.36607e-06
0.13181
0.00119835
-1.1557e-05
0.132542
3.12877e-05
-1.34187e-05
0.132909
-0.00113746
-1.27075e-05
0.132908
-0.00230061
-9.32484e-06
0.132541
-0.00345079
-3.29021e-06
0.131808
-0.00458065
5.21997e-06
0.130714
-0.00568302
1.58862e-05
0.129267
-0.00675103
2.82141e-05
0.127474
-0.00777822
4.16184e-05
0.125346
-0.00875808
5.53805e-05
0.122895
-0.0096828
6.86975e-05
0.120134
-0.0105401
8.07377e-05
0.117072
-0.0113038
9.05626e-05
0.113712
-0.0119012
9.69752e-05
0.110022
-0.0120445
9.7622e-05
0.105794
-0.0102847
8.60834e-05
0.0997962
5.63711e-05
0.0867128
0.0102829
-0.000785637
0.0867144
0.0120417
-0.00116856
0.099799
0.0118977
-0.00128838
0.105799
0.0113006
-0.00130586
0.110028
0.0105385
-0.00130893
0.113719
0.00968479
-0.00130874
0.117079
0.00876558
-0.00130858
0.120141
0.00779309
-0.00130924
0.122902
0.00677468
-0.00131074
0.125352
0.00571615
-0.00131281
0.127479
0.00462309
-0.00131502
0.129271
0.00350141
-0.00131693
0.130718
0.00235735
-0.00131811
0.131811
0.00119756
-0.00131821
0.132543
2.89704e-05
-0.00131696
0.13291
-0.00114124
-0.00131427
0.132909
-0.00230573
-0.00131022
0.132542
-0.00345705
-0.00130505
0.131809
-0.00458778
-0.00129913
0.130716
-0.00569069
-0.00129292
0.129268
-0.00675894
-0.00128691
0.127475
-0.00778602
-0.00128153
0.125347
-0.00876544
-0.0012772
0.122897
-0.00968944
-0.0012742
0.120135
-0.0105457
-0.00127262
0.117073
-0.0113083
-0.0012718
0.113713
-0.0119044
-0.00126884
0.110023
-0.0120464
-0.00125341
0.105795
-0.0102853
-0.00113958
0.0997965
-0.000767523
0.0867129
0.0102613
-0.00158616
0.0856468
0.012044
-0.00236529
0.0987013
0.0119104
-0.00261569
0.104739
0.0113167
-0.00265168
0.108997
0.0105549
-0.00265436
0.11271
0.00969955
-0.00264794
0.11609
0.00877755
-0.00263988
0.11917
0.00780174
-0.00263254
0.121946
0.00677998
-0.0026265
0.124409
0.00571844
-0.00262174
0.126548
0.00462294
-0.00261791
0.12835
0.00349945
-0.0026146
0.129804
0.0023542
-0.00261136
0.130902
0.00119373
-0.00260782
0.131638
2.4805e-05
-0.0026038
0.132007
-0.0011456
-0.00259929
0.132007
-0.00231035
-0.00259457
0.131637
-0.00346218
-0.00259009
0.130901
-0.00459385
-0.00258642
0.129802
-0.00569824
-0.00258418
0.128347
-0.00676844
-0.00258385
0.126545
-0.00779782
-0.00258575
0.124406
-0.00877956
-0.00258999
0.121941
-0.00970544
-0.0025964
0.119164
-0.0105626
-0.00260424
0.116085
-0.0113243
-0.00261121
0.112704
-0.0119165
-0.00261015
0.108991
-0.012048
-0.00257783
0.104734
-0.0102633
-0.00233524
0.0986982
-0.00156804
0.0856448
0.0102154
-0.00234067
0.0835274
0.0120446
-0.00350217
0.0965198
0.011931
-0.00388935
0.102632
0.0113434
-0.00394719
0.106947
0.0105815
-0.00395195
0.110706
0.0097225
-0.00394114
0.114126
0.00879484
-0.00392696
0.11724
0.00781265
-0.00391337
0.120047
0.00678482
-0.00390161
0.122537
0.00571819
-0.00389181
0.124698
0.004619
-0.00388367
0.126518
0.00349328
-0.00387667
0.127987
0.00234718
-0.0038703
0.129097
0.00118692
-0.00386412
0.12984
1.88933e-05
-0.00385796
0.130213
-0.00115038
-0.0038519
0.130212
-0.00231424
-0.00384638
0.129839
-0.0034659
-0.00384203
0.129095
-0.00459848
-0.0038397
0.127986
-0.00570509
-0.00384015
0.126516
-0.00677884
-0.00384395
0.124695
-0.00781276
-0.00385137
0.122534
-0.00879944
-0.00386226
0.120043
-0.00972969
-0.00387601
0.117235
-0.0105894
-0.00389106
0.11412
-0.0113503
-0.00390328
0.1107
-0.0119359
-0.00390094
0.10694
-0.0120473
-0.00384761
0.102626
-0.0102165
-0.00346944
0.0965155
-0.00232101
0.0835247
0.0101412
-0.00302575
0.0803887
0.0120392
-0.00454858
0.0932824
0.0119557
-0.0050826
0.0995057
0.0113774
-0.00516752
0.103905
0.0106154
-0.00517821
0.107733
0.00975094
-0.00516609
0.111212
0.00881511
-0.00514856
0.114378
0.00782397
-0.00513158
0.117231
0.00678784
-0.00511694
0.119761
0.00571457
-0.00510488
0.121955
0.00461084
-0.00509503
0.123803
0.00348282
-0.00508666
0.125294
0.00233637
-0.00507905
0.12642
0.0011773
-0.00507165
0.127174
1.14019e-05
-0.00506422
0.127552
-0.00115543
-0.00505694
0.127552
-0.00231725
-0.00505032
0.127173
-0.00346791
-0.00504528
0.126419
-0.00460116
-0.00504283
0.125293
-0.00571047
-0.00504403
0.123801
-0.006789
-0.00504961
0.121953
-0.0078294
-0.00505986
0.119758
-0.00882329
-0.00507449
0.117228
-0.00976008
-0.00509248
0.114374
-0.0106238
-0.00511137
0.111207
-0.0113836
-0.00512503
0.107726
-0.011959
-0.00511652
0.103898
-0.0120399
-0.0050358
0.0994981
-0.0101409
-0.00451104
0.0932767
-0.00300227
0.0803851
0.010032
-0.00361859
0.0762796
0.0120211
-0.00547437
0.0890311
0.0119795
-0.00616984
0.0954004
0.0114141
-0.00628919
0.0999137
0.0106522
-0.00631129
0.103832
0.00978101
-0.00630213
0.10739
0.00883518
-0.00628526
0.110625
0.00783328
-0.00626874
0.113538
0.00678747
-0.00625502
0.116119
0.00570674
-0.00624437
0.118357
0.00459828
-0.00623615
0.120242
0.00346825
-0.00622931
0.121762
0.00232215
-0.00622281
0.122909
0.00116523
-0.00621592
0.123678
2.58498e-06
-0.00620827
0.124063
-0.00116065
-0.0062001
0.124063
-0.00231929
-0.00619205
0.123677
-0.00346805
-0.00618519
0.122908
-0.00460142
-0.0061808
0.12176
-0.00571343
-0.00618024
0.12024
-0.00679742
-0.00618452
0.118356
-0.00784558
-0.00619418
0.116117
-0.00884844
-0.00620881
0.113536
-0.00979352
-0.00622706
0.110622
-0.0106622
-0.00624543
0.107385
-0.0114203
-0.00625549
0.103826
-0.0119813
-0.0062342
0.0999053
-0.0120195
-0.00611731
0.0953912
-0.0100299
-0.00542969
0.0890234
-0.00358812
0.0762748
0.00987932
-0.00409789
0.0712655
0.011982
-0.0062502
0.0838205
0.0119957
-0.00712729
0.0903691
0.0114479
-0.00729074
0.0950252
0.0106865
-0.00733111
0.0990569
0.00980807
-0.00733081
0.102711
0.00885136
-0.00731967
0.10603
0.00783805
-0.00730841
0.109016
0.00678232
-0.00730019
0.111661
0.00569437
-0.00729533
0.113954
0.00458175
-0.00729266
0.115883
0.00345045
-0.00729068
0.117439
0.00230551
-0.0072879
0.118613
0.00115144
-0.00728328
0.1194
-7.20612e-06
-0.00727655
0.119794
-0.00116605
-0.00726785
0.119794
-0.00232063
-0.00725798
0.119399
-0.00346652
-0.00724808
0.118612
-0.00459906
-0.00723968
0.117437
-0.00571312
-0.00723442
0.115882
-0.00680235
-0.00723383
0.113953
-0.00785873
-0.00723875
0.111661
-0.00887146
-0.00724908
0.109016
-0.00982591
-0.00726296
0.106029
-0.0107003
-0.00727572
0.102708
-0.0114559
-0.00727585
0.0990517
-0.0119971
-0.00723399
0.0950169
-0.0119782
-0.00706953
0.0903587
-0.00987478
-0.00619661
0.0838107
-0.00405665
0.0712593
0.00967168
-0.00444516
0.0654277
0.0119107
-0.0068473
0.0777169
0.0119959
-0.00793227
0.0844755
0.0114715
-0.00815247
0.0893045
0.0107125
-0.00822009
0.0934712
0.00982727
-0.00823572
0.0972383
0.00886005
-0.00823611
0.100656
0.00783606
-0.00823561
0.103728
0.00677175
-0.00823833
0.106448
0.00567813
-0.00824415
0.108804
0.00456287
-0.00825134
0.110786
0.00343144
-0.00825761
0.112385
0.00228821
-0.00826104
0.113591
0.00113725
-0.00826049
0.114399
-1.74949e-05
-0.00825563
0.114804
-0.00117195
-0.00824678
0.114804
-0.00232213
-0.00823479
0.114398
-0.0034643
-0.00822071
0.11359
-0.00459472
-0.0082062
0.112383
-0.00570923
-0.00819311
0.110785
-0.00680228
-0.0081836
0.108804
-0.0078659
-0.00817915
0.106449
-0.00888836
-0.0081802
0.103731
-0.00985254
-0.00818469
0.100658
-0.0107326
-0.00818654
0.097239
-0.0114841
-0.00816988
0.0934688
-0.0119994
-0.00809802
0.0892978
-0.0119062
-0.00787189
0.084465
-0.009665
-0.00678463
0.0777055
-0.00438952
0.06542
0.00939552
-0.00464587
0.0588626
0.0117936
-0.00723664
0.0707974
0.0119704
-0.00856206
0.0777916
0.0114774
-0.0088548
0.0828245
0.0107236
-0.00896094
0.0871482
0.00983313
-0.00900064
0.0910446
0.00885755
-0.00901952
0.0945738
0.00782589
-0.00903618
0.0977432
0.00675634
-0.00905578
0.100547
0.00566028
-0.0090776
0.102976
0.00454482
-0.00909895
0.105019
0.00341456
-0.00911662
0.106667
0.00227322
-0.00912841
0.107911
0.00112444
-0.00913319
0.108744
-2.77578e-05
-0.00913098
0.109162
-0.00117908
-0.00912239
0.109161
-0.00232558
-0.00910808
0.108743
-0.00346364
-0.00908909
0.107909
-0.00459036
-0.00906661
0.106665
-0.00570266
-0.00904273
0.105018
-0.0067964
-0.00901997
0.102976
-0.00786424
-0.0090011
0.10055
-0.00889431
-0.00898718
0.0977481
-0.00986719
-0.00897674
0.0945798
-0.0107527
-0.00896176
0.0910499
-0.0114982
-0.00892125
0.0871505
-0.0119799
-0.00880869
0.0828215
-0.0117916
-0.00850429
0.0777827
-0.00938812
-0.00716757
0.0707857
-0.00457406
0.0588538
0.00903393
-0.00469689
0.0516873
0.0116102
-0.00738453
0.0631487
0.0119027
-0.00898871
0.0703942
0.0114543
-0.00937623
0.0756624
0.0107118
-0.00953479
0.0801664
0.00982004
-0.00960802
0.0842079
0.00884062
-0.00965307
0.0878601
0.0078069
-0.00969418
0.0911367
0.00673802
-0.0097373
0.0940346
0.00564463
-0.00978069
0.096545
0.00453229
-0.00982013
0.0986575
0.00340449
-0.00985174
0.100362
0.00226416
-0.00987309
0.101648
0.00111529
-0.00988395
0.10251
-3.74026e-05
-0.00988481
0.102942
-0.00118872
-0.00987674
0.102941
-0.00233362
-0.00986037
0.102508
-0.00346813
-0.00983618
0.101645
-0.00458952
-0.00980466
0.100358
-0.00569589
-0.00976744
0.0986551
-0.00678485
-0.00972731
0.0965448
-0.00785127
-0.00968812
0.0940376
-0.00888391
-0.00965284
0.0911433
-0.00986232
-0.00962084
0.0878697
-0.0107512
-0.00958271
0.0842186
-0.0114867
-0.00951095
0.0801752
-0.0119229
-0.00934558
0.0756657
-0.0116149
-0.00894175
0.0703895
-0.00902815
-0.00731547
0.0631382
-0.00461059
0.0516786
0.0085465
-0.00459866
0.0440439
0.0113175
-0.00725025
0.0548625
0.0117626
-0.00917638
0.0623571
0.0113832
-0.00969048
0.0678957
0.0106629
-0.00991619
0.072606
0.00977705
-0.0100326
0.0768078
0.00880234
-0.0101129
0.0805931
0.00777637
-0.0101871
0.0839861
0.0067178
-0.0102617
0.0869875
0.0056347
-0.0103325
0.089589
0.00453006
-0.0103933
0.091779
0.00340561
-0.01044
0.0935464
0.00226463
-0.0104713
0.0948811
0.00111186
-0.010488
0.0957749
-4.60477e-05
-0.0104921
0.0962226
-0.00120195
-0.0104848
0.0962214
-0.0023489
-0.0104669
0.0957715
-0.00348145
-0.0104379
0.0948761
-0.00459596
-0.0103973
0.0935409
-0.00569128
-0.0103452
0.0917743
-0.00676717
-0.0102839
0.0895866
-0.00782181
-0.010218
0.0869891
-0.00884728
-0.0101529
0.0839928
-0.00982383
-0.0100907
0.0806049
-0.010711
-0.0100216
0.0768235
-0.0114287
-0.0099112
0.0726223
-0.011798
-0.00968167
0.0679075
-0.011335
-0.00914937
0.0623591
-0.00854607
-0.00719243
0.0548558
-0.00450513
0.0440371
0.00789496
-0.00435118
0.0360762
0.0108442
-0.00676258
0.0460452
0.0115049
-0.00907547
0.0537429
0.0112283
-0.00974791
0.0595918
0.0105414
-0.0100494
0.0645354
0.00967213
-0.0102205
0.0689095
0.00871797
-0.0103513
0.0728375
0.00771876
-0.0104738
0.0763582
0.00668793
-0.010591
0.0794752
0.00562761
-0.0106952
0.0821789
0.0045373
-0.0107796
0.0844563
0.00341829
-0.0108415
0.0862946
0.00227485
-0.0108821
0.087683
0.0011146
-0.0109043
0.0886129
-5.32323e-05
-0.0109113
0.0890785
-0.00121844
-0.0109051
0.0890769
-0.00237125
-0.0108862
0.0886084
-0.00350321
-0.0108533
0.0876762
-0.00460875
-0.0108041
0.0862865
-0.00568548
-0.010737
0.0844482
-0.00673457
-0.0106518
0.0821727
-0.00775879
-0.0105518
0.0794731
-0.00875697
-0.0104445
0.0763621
-0.00971519
-0.0103361
0.0728487
-0.0105914
-0.0102207
0.0689275
-0.011283
-0.0100618
0.0645576
-0.0115565
-0.00976243
0.0596121
-0.0108794
-0.0090753
0.0537533
-0.00790741
-0.00672744
0.0460451
-0.00426622
0.0360723
0.00698397
-0.00386968
0.0279068
0.0101529
-0.00594683
0.0368455
0.0110858
-0.00858971
0.0446192
0.0109023
-0.0093833
0.050785
0.0102437
-0.00976691
0.0559636
0.00941355
-0.0100285
0.0605143
0.00851869
-0.0102481
0.0645995
0.00758613
-0.0104484
0.0682679
0.00661497
-0.0106257
0.0715204
0.00559919
-0.0107716
0.0743437
0.00453605
-0.0108824
0.0767224
0.00342892
-0.0109605
0.0786424
0.0022861
-0.011011
0.0800921
0.00111921
-0.0110393
0.0810628
-5.85384e-05
-0.0110497
0.0815486
-0.00123307
-0.0110449
0.0815468
-0.00239095
-0.0110248
0.0810574
-0.00351983
-0.0109877
0.0800837
-0.00460974
-0.0109297
0.0786317
-0.0056546
-0.0108463
0.0767107
-0.00665412
-0.0107335
0.0743328
-0.00761369
-0.0105903
0.0715126
-0.008542
-0.0104213
0.0682657
-0.00944087
-0.0102347
0.0646053
-0.0102818
-0.0100329
0.0605292
-0.0109536
-0.00978873
0.0559862
-0.0111439
-0.00941522
0.0508092
-0.0102032
-0.00861439
0.0446362
-0.007011
-0.0059422
0.0368528
-0.00381215
0.0279072
0.00685651
-0.00436228
0.0199027
0.00954042
-0.00399595
0.027292
0.0103462
-0.00717978
0.0351115
0.0100839
-0.00805305
0.0413696
0.00948399
-0.00862073
0.0466833
0.00879231
-0.00906726
0.0514067
0.00805736
-0.0094422
0.0556818
0.0072711
-0.0097605
0.0595344
0.00641598
-0.01002
0.0629551
0.00548203
-0.0102202
0.0659257
0.00447164
-0.0103674
0.0684279
0.00339582
-0.0104709
0.0704466
0.00227019
-0.0105393
0.0719699
0.00111196
-0.0105797
0.0729894
-6.06877e-05
-0.0105971
0.0734996
-0.00123009
-0.0105937
0.0734978
-0.00237827
-0.0105699
0.072984
-0.00348812
-0.0105231
0.0719612
-0.00454359
-0.0104488
0.070435
-0.00553131
-0.0103405
0.0684144
-0.00644276
-0.0101903
0.0659114
-0.00727946
-0.00998987
0.0629419
-0.0080545
-0.00973489
0.0595247
-0.00878841
-0.00942644
0.0556783
-0.0094897
-0.00906714
0.0514118
-0.0101076
-0.00863863
0.0466973
-0.0103876
-0.008087
0.0413895
-0.00958667
-0.00721794
0.0351298
-0.00688083
-0.0040254
0.0273041
-0.00433275
0.0199064
0.00320051
-0.000255302
0.00971422
0.00544385
-0.00124548
0.0178958
0.00647742
-0.00463401
0.0249087
0.00671906
-0.00522233
0.0307133
0.00673642
-0.00584246
0.0359573
0.00660249
-0.00637881
0.0408076
0.00633863
-0.00685606
0.0452651
0.00593684
-0.00725662
0.0493029
0.00538742
-0.0075764
0.0528995
0.00469643
-0.00782468
0.0560299
0.00388411
-0.00801322
0.0586689
0.00297719
-0.0081531
0.0607979
0.0020018
-0.00825112
0.0624042
0.000982702
-0.0083127
0.0634794
-5.64379e-05
-0.00834179
0.0640178
-0.00109224
-0.00834038
0.0640164
-0.00210177
-0.00830839
0.0634754
-0.0030616
-0.00824372
0.0623975
-0.00394768
-0.00814256
0.0607885
-0.00473508
-0.00799954
0.0586572
-0.00539934
-0.00780815
0.0560166
-0.00592312
-0.00755797
0.0528856
-0.00630483
-0.00723824
0.0492901
-0.00655738
-0.0068418
0.0452553
-0.00669294
-0.00637236
0.0408029
-0.00669079
-0.00584713
0.0359593
-0.00647628
-0.00523777
0.030722
-0.00545857
-0.00466909
0.0249215
-0.00323755
-0.00126639
0.0179096
-0.000267792
0.0097192
-3.66876e-05
0.00754077
0.00279707
0.00975882
0.00280159
0.0149988
0.00309743
0.0196068
0.00333965
0.0241855
0.00348995
0.0285152
0.00352709
0.0325275
0.00343605
0.0362092
0.00320691
0.0395373
0.00285149
0.042461
0.00239187
0.0449412
0.00185091
0.0469518
0.00125123
0.0484746
0.00061407
0.0494968
-4.04738e-05
0.0500097
-0.000692835
0.0500089
-0.00132339
0.0494945
-0.00191182
0.0484708
-0.0024368
0.0469464
-0.00287571
0.0449342
-0.00320621
0.0424526
-0.00340773
0.0395281
-0.00347129
0.0362001
-0.00341161
0.0325192
-0.00324804
0.0285084
-0.00300616
0.0241812
-0.00272455
0.0196056
-0.00275655
0.0150003
5.32003e-05
0.00976191
0.0075448
0.000825932
0.000357279
0.00635691
0.00138936
0.000667648
0.00852731
0.00141849
0.00160053
0.0133689
0.00151114
0.00198557
0.0175285
0.00154666
0.00253675
0.0216133
0.00154632
0.00306465
0.025451
0.00150619
0.00356272
0.0290051
0.00143177
0.00401356
0.0322703
0.00132592
0.00441461
0.0352286
0.00119001
0.00476543
0.0378314
0.00102396
0.00506562
0.0400414
0.000828203
0.00531358
0.0418335
0.000605123
0.00550574
0.0431913
0.000359944
0.00563775
0.0441034
0.000100371
0.0057063
0.044562
-0.000164485
0.0057097
0.044563
-0.000425867
0.00564833
0.0441063
-0.000677061
0.00552453
0.043196
-0.000914193
0.00534208
0.0418399
-0.0011362
0.00510545
0.0400491
-0.00134335
0.00481783
0.0378401
-0.00153403
0.0044788
0.035238
-0.00169998
0.00408428
0.0322797
-0.00182344
0.00362703
0.0290136
-0.00187921
0.00310479
0.0254574
-0.00185006
0.00253346
0.021617
-0.00169837
0.00192311
0.0175296
-0.001554
0.00148678
0.0133683
-0.000862091
0.000544437
0.00852514
0.000328583
0.00635374
0.000807486