/*--------------------------------*- C++ -*----------------------------------*\
| =========                 |                                                 |
| \\      /  F ield         | OpenFOAM: The Open Source CFD Toolbox           |
|  \\    /   O peration     | Version:  2312                                  |
|   \\  /    A nd           | Website:  www.openfoam.com                      |
|    \\/     M anipulation  |                                                 |
\*---------------------------------------------------------------------------*/
FoamFile
{
    version     2.0;
    format      ascii;
    arch        "LSB;label=32;scalar=64";
    class       volScalarField;
    location    "550";
    object      T;
}
// * * * * * * * * * * * * * * * * * * * * * * * * * * * * * * * * * * * * * //

dimensions      [0 0 0 1 0 0 0];

internalField   nonuniform List<scalar> 
27000
(
426.259
355.853
347.252
343.1
342.401
342.489
342.705
342.944
343.18
343.384
343.551
343.684
343.784
343.85
343.884
343.884
343.853
343.788
343.69
343.559
343.394
343.191
342.954
342.713
342.49
342.391
343.073
347.2
355.77
426.104
335.775
354.502
348.468
346.832
346.528
346.709
346.94
347.13
347.28
347.396
347.483
347.549
347.597
347.628
347.644
347.646
347.633
347.605
347.561
347.497
347.411
347.294
347.14
346.942
346.697
346.499
346.785
348.408
354.442
335.784
342.298
345.585
348.15
347.93
347.778
347.798
347.882
347.963
348.025
348.071
348.105
348.129
348.146
348.157
348.164
348.166
348.163
348.155
348.14
348.118
348.084
348.035
347.966
347.876
347.78
347.748
347.893
348.115
345.572
342.303
342.239
346.085
347.682
347.997
348.011
348.019
348.056
348.1
348.14
348.17
348.192
348.208
348.219
348.226
348.23
348.232
348.231
348.226
348.217
348.202
348.179
348.144
348.099
348.047
348.003
347.989
347.974
347.667
346.081
342.245
342.661
346.611
347.808
348.036
348.082
348.093
348.11
348.135
348.16
348.182
348.199
348.211
348.22
348.226
348.23
348.231
348.23
348.227
348.219
348.206
348.188
348.162
348.132
348.102
348.082
348.069
348.026
347.804
346.615
342.669
343.084
346.974
347.933
348.097
348.128
348.134
348.139
348.15
348.165
348.179
348.192
348.201
348.209
348.214
348.217
348.218
348.217
348.214
348.208
348.198
348.183
348.166
348.149
348.135
348.128
348.124
348.096
347.937
346.984
343.094
343.48
347.226
348.015
348.144
348.163
348.162
348.16
348.162
348.168
348.176
348.184
348.191
348.197
348.201
348.203
348.204
348.204
348.201
348.196
348.189
348.18
348.17
348.162
348.159
348.161
348.165
348.149
348.025
347.239
343.491
343.822
347.409
348.071
348.174
348.186
348.181
348.174
348.17
348.171
348.174
348.178
348.183
348.187
348.19
348.192
348.193
348.193
348.191
348.187
348.183
348.178
348.174
348.173
348.176
348.184
348.192
348.183
348.083
347.423
343.831
344.113
347.545
348.109
348.193
348.2
348.192
348.183
348.176
348.173
348.173
348.175
348.178
348.18
348.183
348.184
348.185
348.185
348.183
348.181
348.179
348.177
348.177
348.18
348.188
348.198
348.208
348.203
348.122
347.557
344.12
344.354
347.646
348.136
348.204
348.208
348.198
348.188
348.18
348.175
348.173
348.173
348.174
348.176
348.177
348.179
348.179
348.179
348.179
348.178
348.177
348.177
348.18
348.185
348.194
348.206
348.217
348.215
348.148
347.657
344.359
344.545
347.721
348.155
348.211
348.211
348.2
348.189
348.181
348.175
348.172
348.171
348.172
348.173
348.174
348.175
348.175
348.176
348.175
348.175
348.176
348.177
348.181
348.187
348.196
348.209
348.22
348.221
348.165
347.73
344.549
344.69
347.775
348.168
348.214
348.212
348.2
348.189
348.181
348.175
348.172
348.17
348.17
348.171
348.172
348.172
348.173
348.173
348.173
348.174
348.174
348.177
348.18
348.187
348.196
348.208
348.22
348.223
348.176
347.781
344.692
344.793
347.812
348.175
348.216
348.211
348.199
348.188
348.18
348.174
348.171
348.169
348.169
348.169
348.17
348.171
348.171
348.171
348.172
348.172
348.173
348.176
348.18
348.186
348.195
348.207
348.219
348.223
348.182
347.817
344.795
344.86
347.834
348.18
348.216
348.21
348.198
348.187
348.179
348.173
348.17
348.169
348.168
348.169
348.169
348.17
348.17
348.17
348.171
348.171
348.173
348.175
348.179
348.185
348.194
348.205
348.217
348.223
348.186
347.838
344.862
344.893
347.845
348.182
348.216
348.209
348.197
348.186
348.178
348.173
348.17
348.168
348.168
348.168
348.168
348.169
348.169
348.17
348.17
348.171
348.172
348.174
348.178
348.184
348.192
348.204
348.216
348.222
348.187
347.849
344.894
344.893
347.845
348.182
348.216
348.209
348.197
348.186
348.178
348.173
348.17
348.168
348.168
348.168
348.168
348.169
348.169
348.17
348.17
348.171
348.172
348.174
348.178
348.183
348.192
348.203
348.215
348.222
348.187
347.849
344.894
344.86
347.834
348.179
348.215
348.209
348.197
348.186
348.178
348.173
348.17
348.168
348.168
348.168
348.169
348.169
348.17
348.17
348.17
348.171
348.172
348.174
348.178
348.184
348.192
348.204
348.216
348.222
348.185
347.838
344.862
344.793
347.811
348.174
348.215
348.21
348.198
348.187
348.179
348.173
348.17
348.169
348.168
348.169
348.169
348.17
348.17
348.171
348.171
348.171
348.172
348.174
348.178
348.184
348.193
348.205
348.217
348.222
348.181
347.816
344.795
344.689
347.774
348.166
348.213
348.21
348.199
348.188
348.179
348.174
348.171
348.169
348.169
348.17
348.171
348.172
348.172
348.172
348.172
348.172
348.173
348.174
348.178
348.184
348.194
348.205
348.217
348.221
348.174
347.78
344.692
344.544
347.72
348.154
348.209
348.209
348.199
348.188
348.179
348.174
348.171
348.171
348.171
348.172
348.173
348.174
348.174
348.174
348.174
348.173
348.173
348.174
348.177
348.183
348.193
348.205
348.216
348.218
348.162
347.728
344.548
344.353
347.645
348.135
348.203
348.206
348.196
348.186
348.178
348.173
348.172
348.172
348.173
348.175
348.177
348.178
348.178
348.178
348.177
348.176
348.174
348.174
348.176
348.181
348.19
348.201
348.212
348.211
348.144
347.654
344.358
344.112
347.544
348.107
348.191
348.198
348.19
348.181
348.175
348.172
348.172
348.174
348.177
348.18
348.182
348.184
348.184
348.184
348.182
348.179
348.177
348.174
348.173
348.176
348.183
348.193
348.203
348.198
348.117
347.554
344.118
343.821
347.408
348.069
348.171
348.184
348.178
348.172
348.169
348.17
348.173
348.178
348.183
348.187
348.19
348.192
348.193
348.192
348.189
348.186
348.18
348.175
348.17
348.168
348.171
348.178
348.186
348.176
348.077
347.419
343.829
343.48
347.225
348.013
348.141
348.161
348.159
348.158
348.16
348.167
348.176
348.184
348.192
348.197
348.201
348.204
348.204
348.203
348.2
348.195
348.187
348.177
348.166
348.158
348.154
348.155
348.158
348.142
348.018
347.234
343.488
343.083
346.972
347.93
348.094
348.125
348.131
348.137
348.15
348.165
348.18
348.193
348.203
348.21
348.215
348.218
348.219
348.217
348.214
348.207
348.196
348.181
348.163
348.145
348.13
348.122
348.117
348.089
347.93
346.978
343.09
342.66
346.609
347.805
348.032
348.078
348.091
348.109
348.134
348.161
348.183
348.201
348.213
348.222
348.228
348.231
348.232
348.231
348.227
348.219
348.205
348.186
348.16
348.129
348.099
348.077
348.063
348.019
347.796
346.609
342.665
342.238
346.082
347.678
347.993
348.008
348.017
348.055
348.101
348.141
348.172
348.195
348.21
348.221
348.228
348.232
348.234
348.232
348.227
348.217
348.202
348.177
348.143
348.097
348.044
347.999
347.984
347.968
347.659
346.074
342.24
342.297
345.583
348.145
347.926
347.775
347.797
347.883
347.965
348.028
348.074
348.108
348.132
348.149
348.16
348.167
348.168
348.165
348.156
348.141
348.118
348.083
348.034
347.965
347.874
347.778
347.746
347.889
348.109
345.565
342.298
335.776
354.496
348.461
346.828
346.526
346.709
346.942
347.133
347.283
347.399
347.487
347.553
347.6
347.63
347.646
347.648
347.635
347.606
347.562
347.498
347.41
347.293
347.139
346.94
346.696
346.498
346.784
348.406
354.437
335.776
426.242
355.843
347.247
343.098
342.401
342.49
342.707
342.946
343.182
343.386
343.553
343.685
343.785
343.851
343.884
343.885
343.853
343.789
343.691
343.559
343.394
343.19
342.953
342.712
342.49
342.391
343.073
347.201
355.772
426.097
448.397
363.799
347.935
339.339
336.678
336.043
335.999
336.144
336.363
336.59
336.79
336.951
337.07
337.148
337.187
337.184
337.141
337.058
336.934
336.768
336.562
336.333
336.115
335.979
336.04
336.711
339.427
348.088
364.011
448.777
332.291
361.538
352.56
347.219
344.311
343.389
343.342
343.567
343.841
344.096
344.309
344.474
344.594
344.67
344.706
344.702
344.658
344.574
344.447
344.275
344.058
343.804
343.539
343.337
343.419
344.389
347.34
352.697
361.671
332.279
337.039
343.764
349.589
349.044
347.757
347.005
346.752
346.74
346.808
346.892
346.969
347.031
347.077
347.105
347.117
347.112
347.091
347.054
347.002
346.935
346.858
346.781
346.727
346.766
347.052
347.835
349.138
349.67
343.801
337.04
336.036
341.907
346.461
348.086
348.18
347.95
347.782
347.712
347.699
347.709
347.725
347.742
347.755
347.763
347.764
347.76
347.75
347.735
347.717
347.698
347.684
347.683
347.712
347.802
347.992
348.235
348.141
346.497
341.917
336.028
336.408
342.312
346.041
347.544
348.014
348.084
348.048
348.007
347.984
347.973
347.97
347.97
347.97
347.97
347.968
347.965
347.96
347.954
347.95
347.95
347.957
347.976
348.011
348.064
348.111
348.044
347.569
346.049
342.301
336.389
336.768
343.093
346.321
347.486
347.918
348.065
348.099
348.094
348.082
348.072
348.064
348.058
348.054
348.051
348.048
348.045
348.043
348.042
348.043
348.049
348.06
348.077
348.096
348.107
348.077
347.928
347.488
346.309
343.066
336.743
337.165
343.737
346.625
347.563
347.907
348.047
348.102
348.117
348.116
348.11
348.103
348.097
348.091
348.087
348.084
348.081
348.08
348.082
348.085
348.092
348.101
348.111
348.115
348.102
348.048
347.903
347.549
346.6
343.703
337.138
337.584
344.239
346.857
347.647
347.927
348.046
348.099
348.121
348.127
348.125
348.12
348.114
348.109
348.104
348.101
348.099
348.099
348.101
348.104
348.11
348.116
348.12
348.115
348.094
348.037
347.913
347.625
346.827
344.206
337.56
337.966
344.635
347.033
347.717
347.953
348.053
348.1
348.121
348.129
348.129
348.126
348.121
348.116
348.112
348.11
348.108
348.108
348.11
348.113
348.117
348.12
348.12
348.112
348.089
348.039
347.934
347.692
347.003
344.606
337.948
338.294
344.945
347.168
347.775
347.978
348.064
348.104
348.122
348.129
348.13
348.128
348.124
348.12
348.117
348.114
348.113
348.113
348.115
348.117
348.12
348.121
348.119
348.111
348.09
348.047
347.958
347.751
347.141
344.922
338.281
338.569
345.184
347.271
347.823
348.002
348.076
348.109
348.124
348.13
348.131
348.129
348.126
348.122
348.12
348.117
348.116
348.116
348.117
348.119
348.121
348.121
348.119
348.112
348.095
348.059
347.983
347.801
347.25
345.167
338.559
338.789
345.364
347.35
347.861
348.023
348.088
348.116
348.127
348.132
348.132
348.13
348.127
348.124
348.122
348.12
348.119
348.119
348.119
348.12
348.122
348.122
348.121
348.115
348.101
348.072
348.006
347.843
347.333
345.352
338.782
338.953
345.494
347.406
347.889
348.04
348.098
348.122
348.131
348.133
348.133
348.131
348.128
348.126
348.124
348.122
348.121
348.121
348.121
348.122
348.123
348.124
348.123
348.119
348.108
348.083
348.025
347.874
347.394
345.486
338.949
339.063
345.579
347.443
347.908
348.052
348.105
348.126
348.134
348.135
348.134
348.132
348.129
348.127
348.125
348.124
348.123
348.123
348.123
348.124
348.125
348.125
348.125
348.123
348.114
348.092
348.039
347.896
347.433
345.572
339.06
339.118
345.621
347.462
347.919
348.058
348.11
348.129
348.136
348.137
348.135
348.133
348.13
348.128
348.126
348.125
348.124
348.124
348.124
348.125
348.126
348.127
348.127
348.125
348.118
348.098
348.046
347.907
347.453
345.615
339.115
339.118
345.621
347.463
347.92
348.059
348.111
348.13
348.137
348.138
348.136
348.134
348.131
348.129
348.127
348.126
348.125
348.125
348.125
348.126
348.127
348.128
348.128
348.127
348.119
348.099
348.048
347.909
347.454
345.616
339.115
339.064
345.581
347.446
347.911
348.055
348.108
348.129
348.137
348.138
348.137
348.134
348.132
348.129
348.127
348.126
348.125
348.125
348.126
348.127
348.128
348.129
348.129
348.127
348.118
348.097
348.043
347.9
347.436
345.574
339.061
338.955
345.498
347.411
347.894
348.045
348.103
348.126
348.135
348.138
348.137
348.135
348.132
348.129
348.127
348.126
348.125
348.125
348.126
348.127
348.128
348.129
348.129
348.125
348.115
348.09
348.032
347.881
347.399
345.489
338.951
338.791
345.369
347.356
347.867
348.03
348.094
348.122
348.134
348.137
348.137
348.135
348.132
348.129
348.126
348.125
348.124
348.124
348.125
348.127
348.129
348.13
348.129
348.124
348.111
348.082
348.016
347.852
347.341
345.358
338.785
338.572
345.189
347.279
347.831
348.011
348.084
348.117
348.132
348.137
348.137
348.135
348.131
348.128
348.125
348.123
348.122
348.123
348.124
348.126
348.129
348.131
348.13
348.123
348.107
348.071
347.996
347.813
347.261
345.174
338.563
338.298
344.951
347.176
347.784
347.988
348.073
348.113
348.131
348.137
348.137
348.134
348.13
348.126
348.123
348.121
348.12
348.12
348.122
348.125
348.129
348.131
348.131
348.124
348.104
348.062
347.973
347.766
347.155
344.931
338.286
337.97
344.641
347.042
347.727
347.963
348.063
348.11
348.13
348.137
348.136
348.132
348.127
348.122
348.119
348.116
348.115
348.115
348.118
348.122
348.127
348.131
348.132
348.126
348.105
348.056
347.951
347.71
347.019
344.618
337.955
337.588
344.246
346.867
347.658
347.938
348.057
348.11
348.13
348.134
348.131
348.126
348.12
348.114
348.11
348.107
348.106
348.106
348.108
348.113
348.12
348.127
348.132
348.129
348.109
348.055
347.932
347.645
346.846
344.22
337.569
337.17
343.744
346.636
347.575
347.919
348.059
348.112
348.125
348.123
348.116
348.108
348.102
348.096
348.092
348.089
348.087
348.087
348.089
348.093
348.101
348.111
348.122
348.128
348.118
348.066
347.923
347.571
346.622
343.72
337.149
336.773
343.101
346.334
347.5
347.931
348.076
348.108
348.102
348.088
348.076
348.068
348.062
348.058
348.055
348.052
348.05
348.048
348.048
348.051
348.057
348.069
348.087
348.108
348.121
348.094
347.948
347.511
346.332
343.085
336.756
336.415
342.322
346.054
347.559
348.026
348.094
348.055
348.012
347.987
347.976
347.972
347.971
347.972
347.973
347.972
347.969
347.964
347.96
347.956
347.957
347.964
347.983
348.019
348.074
348.123
348.061
347.591
346.073
342.322
336.404
336.045
341.918
346.476
348.1
348.191
347.958
347.787
347.715
347.7
347.709
347.725
347.742
347.755
347.764
347.766
347.763
347.753
347.739
347.722
347.704
347.69
347.689
347.718
347.808
347.999
348.246
348.158
346.521
341.941
336.046
337.048
343.775
349.604
349.058
347.766
347.01
346.754
346.739
346.806
346.89
346.967
347.029
347.076
347.105
347.118
347.114
347.094
347.057
347.005
346.939
346.863
346.785
346.731
346.768
347.052
347.837
349.144
349.686
343.826
337.062
332.29
361.554
352.576
347.23
344.317
343.39
343.341
343.563
343.837
344.092
344.306
344.472
344.592
344.669
344.706
344.702
344.659
344.576
344.449
344.278
344.061
343.807
343.542
343.338
343.417
344.384
347.334
352.698
361.684
332.307
448.443
363.825
347.951
339.345
336.679
336.041
335.997
336.141
336.36
336.587
336.788
336.95
337.069
337.148
337.186
337.184
337.142
337.059
336.935
336.769
336.564
336.335
336.118
335.981
336.041
336.708
339.418
348.074
363.998
448.791
444.702
361.758
346.278
337.381
334.318
333.4
333.191
333.204
333.291
333.386
333.471
333.545
333.604
333.645
333.668
333.672
333.657
333.623
333.572
333.506
333.426
333.335
333.246
333.221
333.402
334.265
337.244
346.052
361.457
444.143
332.096
360.092
352.145
346.375
342.534
340.854
340.413
340.508
340.781
341.077
341.339
341.551
341.71
341.816
341.872
341.877
341.832
341.737
341.588
341.386
341.129
340.832
340.546
340.421
340.813
342.431
346.215
351.964
359.903
332.092
336.007
343.259
349.434
348.928
346.963
345.51
344.92
344.873
345.045
345.261
345.454
345.606
345.716
345.789
345.827
345.833
345.807
345.746
345.646
345.501
345.309
345.085
344.892
344.904
345.447
346.859
348.805
349.326
343.204
335.991
333.893
340.152
345.34
347.7
347.862
347.386
347.042
346.938
346.979
347.072
347.167
347.245
347.302
347.34
347.361
347.367
347.358
347.33
347.281
347.208
347.11
347.004
346.942
347.016
347.329
347.785
347.625
345.29
340.129
333.892
333.877
339.727
344.097
346.671
347.635
347.782
347.718
347.671
347.679
347.721
347.77
347.814
347.847
347.87
347.884
347.889
347.885
347.871
347.843
347.8
347.746
347.694
347.668
347.696
347.744
347.591
346.635
344.084
339.735
333.899
334.056
340.253
344.29
346.548
347.503
347.828
347.91
347.927
347.943
347.968
347.998
348.027
348.05
348.066
348.076
348.08
348.078
348.067
348.048
348.02
347.985
347.951
347.925
347.898
347.81
347.487
346.543
344.305
340.285
334.09
334.234
340.892
344.857
346.775
347.551
347.861
347.979
348.026
348.051
348.073
348.095
348.115
348.132
348.145
348.153
348.156
348.154
348.146
348.131
348.111
348.086
348.058
348.028
347.977
347.859
347.556
346.794
344.892
340.937
334.272
334.416
341.469
345.363
347.024
347.655
347.912
348.023
348.074
348.103
348.123
348.14
348.156
348.169
348.178
348.185
348.187
348.185
348.179
348.168
348.153
348.134
348.111
348.081
348.03
347.923
347.674
347.055
345.404
341.515
334.45
334.601
341.958
345.736
347.214
347.75
347.963
348.058
348.105
348.131
348.149
348.162
348.174
348.184
348.191
348.196
348.198
348.196
348.192
348.184
348.173
348.159
348.142
348.116
348.071
347.981
347.775
347.249
345.776
341.998
334.628
334.778
342.364
346.006
347.347
347.818
348.003
348.085
348.126
348.148
348.163
348.173
348.181
348.188
348.194
348.197
348.199
348.198
348.195
348.19
348.183
348.173
348.16
348.139
348.101
348.023
347.845
347.379
346.04
342.395
334.798
334.937
342.69
346.2
347.436
347.863
348.029
348.103
348.139
348.159
348.17
348.178
348.184
348.188
348.192
348.195
348.196
348.196
348.195
348.192
348.187
348.181
348.171
348.154
348.12
348.05
347.887
347.464
346.227
342.713
334.951
335.07
342.94
346.337
347.495
347.89
348.045
348.114
348.147
348.164
348.173
348.179
348.183
348.187
348.189
348.191
348.192
348.193
348.192
348.19
348.188
348.184
348.176
348.161
348.13
348.064
347.911
347.517
346.357
342.956
335.079
335.173
343.121
346.431
347.533
347.907
348.053
348.119
348.151
348.166
348.174
348.179
348.182
348.184
348.186
348.187
348.188
348.189
348.189
348.188
348.187
348.184
348.178
348.164
348.135
348.07
347.924
347.551
346.445
343.131
335.18
335.244
343.237
346.489
347.556
347.915
348.057
348.121
348.152
348.167
348.174
348.178
348.18
348.181
348.183
348.184
348.185
348.186
348.186
348.186
348.186
348.184
348.178
348.164
348.135
348.072
347.93
347.57
346.5
343.245
335.248
335.28
343.293
346.515
347.565
347.918
348.058
348.121
348.151
348.166
348.173
348.176
348.178
348.18
348.181
348.182
348.183
348.183
348.184
348.184
348.184
348.182
348.177
348.163
348.134
348.072
347.932
347.577
346.525
343.3
335.283
335.279
343.292
346.514
347.564
347.917
348.056
348.12
348.15
348.165
348.172
348.175
348.177
348.179
348.18
348.181
348.182
348.182
348.183
348.183
348.183
348.18
348.175
348.161
348.132
348.07
347.93
347.576
346.523
343.298
335.282
335.241
343.234
346.484
347.551
347.911
348.053
348.117
348.148
348.163
348.17
348.174
348.177
348.178
348.18
348.181
348.182
348.182
348.183
348.182
348.181
348.179
348.173
348.159
348.129
348.066
347.924
347.564
346.495
343.241
335.246
335.169
343.115
346.423
347.525
347.899
348.046
348.112
348.144
348.16
348.169
348.173
348.177
348.179
348.181
348.182
348.183
348.183
348.183
348.182
348.18
348.177
348.17
348.155
348.125
348.06
347.914
347.541
346.437
343.125
335.175
335.064
342.932
346.327
347.485
347.879
348.034
348.104
348.138
348.156
348.166
348.172
348.176
348.18
348.183
348.185
348.185
348.185
348.184
348.182
348.179
348.174
348.165
348.149
348.117
348.049
347.897
347.503
346.345
342.947
335.073
334.93
342.681
346.188
347.423
347.849
348.016
348.091
348.129
348.149
348.161
348.169
348.176
348.181
348.185
348.187
348.188
348.188
348.185
348.182
348.176
348.169
348.158
348.139
348.104
348.031
347.868
347.445
346.21
342.7
334.942
334.77
342.354
345.992
347.332
347.803
347.988
348.071
348.114
348.137
348.153
348.164
348.173
348.18
348.185
348.189
348.19
348.189
348.185
348.179
348.171
348.16
348.145
348.122
348.082
348.002
347.822
347.356
346.019
342.379
334.787
334.592
341.946
345.721
347.197
347.733
347.947
348.044
348.092
348.12
348.138
348.153
348.165
348.175
348.182
348.187
348.188
348.186
348.181
348.173
348.161
348.145
348.126
348.098
348.05
347.957
347.749
347.221
345.75
341.978
334.614
334.406
341.456
345.346
347.005
347.636
347.895
348.008
348.062
348.091
348.113
348.131
348.147
348.16
348.17
348.176
348.178
348.175
348.168
348.157
348.14
348.12
348.096
348.063
348.009
347.897
347.645
347.023
345.374
341.49
334.433
334.224
340.878
344.839
346.755
347.531
347.843
347.965
348.014
348.041
348.065
348.087
348.108
348.125
348.137
348.145
348.147
348.145
348.136
348.121
348.099
348.073
348.045
348.011
347.958
347.835
347.526
346.759
344.858
340.908
334.251
334.044
340.236
344.269
346.525
347.483
347.812
347.898
347.917
347.935
347.962
347.993
348.021
348.043
348.059
348.069
348.072
348.069
348.058
348.038
348.01
347.975
347.94
347.912
347.882
347.789
347.459
346.509
344.269
340.252
334.066
333.862
339.706
344.073
346.648
347.616
347.769
347.709
347.665
347.675
347.717
347.767
347.81
347.843
347.865
347.878
347.883
347.878
347.863
347.834
347.792
347.738
347.686
347.661
347.687
347.731
347.569
346.603
344.046
339.698
333.871
333.874
340.127
345.315
347.679
347.847
347.377
347.037
346.936
346.978
347.072
347.167
347.243
347.299
347.337
347.357
347.362
347.352
347.324
347.274
347.201
347.104
347
346.939
347.015
347.328
347.777
347.604
345.255
340.09
333.86
335.984
343.233
349.411
348.912
346.955
345.507
344.921
344.876
345.047
345.263
345.455
345.606
345.716
345.787
345.825
345.83
345.803
345.741
345.64
345.495
345.303
345.081
344.892
344.908
345.456
346.868
348.805
349.307
343.166
335.954
332.069
360.062
352.128
346.365
342.53
340.854
340.416
340.513
340.785
341.08
341.341
341.553
341.71
341.816
341.871
341.875
341.83
341.734
341.585
341.381
341.125
340.829
340.545
340.424
340.823
342.448
346.235
351.974
359.888
332.046
444.634
361.739
346.268
337.376
334.317
333.402
333.193
333.207
333.293
333.387
333.472
333.545
333.603
333.644
333.666
333.67
333.654
333.62
333.569
333.502
333.422
333.331
333.242
333.219
333.405
334.276
337.267
346.085
361.489
444.142
443.781
362.003
346.863
337.613
333.862
332.334
331.717
331.49
331.437
331.45
331.484
331.521
331.552
331.573
331.581
331.575
331.556
331.524
331.482
331.435
331.393
331.377
331.435
331.684
332.349
333.963
337.843
347.225
362.46
444.612
331.271
359.411
352.274
346.683
342.414
340.015
338.915
338.541
338.522
338.65
338.82
338.982
339.111
339.199
339.24
339.232
339.177
339.074
338.931
338.757
338.581
338.456
338.495
338.911
340.08
342.565
346.91
352.533
359.694
331.283
335.5
342.835
349.27
349.079
347.001
344.989
343.717
343.126
342.969
343.035
343.188
343.35
343.487
343.581
343.624
343.615
343.554
343.443
343.292
343.118
342.965
342.912
343.1
343.742
345.076
347.144
349.248
349.422
342.915
335.528
332.849
339.302
344.741
347.547
347.945
347.271
346.518
346.045
345.853
345.835
345.896
345.979
346.052
346.102
346.124
346.115
346.077
346.011
345.925
345.836
345.776
345.812
346.039
346.556
347.354
348.054
347.652
344.814
339.341
332.869
332.363
338.21
342.795
345.919
347.432
347.757
347.594
347.367
347.217
347.151
347.14
347.155
347.175
347.19
347.195
347.188
347.169
347.142
347.113
347.097
347.114
347.196
347.372
347.63
347.817
347.5
345.972
342.82
338.209
332.344
332.302
338.255
342.393
345.301
346.991
347.673
347.831
347.799
347.731
347.68
347.654
347.644
347.642
347.642
347.64
347.634
347.625
347.617
347.614
347.624
347.657
347.72
347.805
347.854
347.704
347.019
345.312
342.377
338.22
332.262
332.356
338.635
342.664
345.371
346.898
347.584
347.847
347.918
347.916
347.895
347.876
347.863
347.855
347.849
347.844
347.84
347.837
347.836
347.841
347.855
347.879
347.908
347.919
347.854
347.59
346.893
345.346
342.619
338.58
332.31
332.46
339.075
343.131
345.684
346.985
347.577
347.842
347.949
347.982
347.985
347.977
347.968
347.96
347.954
347.949
347.946
347.945
347.946
347.952
347.961
347.972
347.973
347.943
347.836
347.565
346.959
345.639
343.072
339.016
332.416
332.588
339.5
343.606
346.009
347.119
347.617
347.853
347.962
348.009
348.025
348.027
348.023
348.017
348.012
348.008
348.005
348.005
348.006
348.01
348.013
348.013
347.998
347.95
347.837
347.594
347.084
345.959
343.547
339.448
332.551
332.719
339.886
344.026
346.278
347.246
347.672
347.874
347.975
348.025
348.046
348.053
348.052
348.049
348.045
348.042
348.04
348.04
348.04
348.042
348.041
348.033
348.011
347.959
347.853
347.643
347.209
346.232
343.975
339.845
332.691
332.841
340.218
344.371
346.489
347.353
347.724
347.9
347.99
348.037
348.059
348.068
348.069
348.068
348.065
348.063
348.061
348.06
348.06
348.06
348.056
348.046
348.022
347.972
347.878
347.696
347.319
346.45
344.333
340.187
332.82
332.943
340.487
344.64
346.647
347.438
347.769
347.925
348.005
348.048
348.069
348.078
348.08
348.079
348.077
348.075
348.074
348.073
348.073
348.071
348.067
348.056
348.032
347.987
347.903
347.743
347.408
346.616
344.611
340.465
332.928
333.024
340.69
344.833
346.761
347.501
347.806
347.947
348.019
348.057
348.076
348.085
348.087
348.087
348.085
348.084
348.082
348.082
348.081
348.079
348.074
348.064
348.042
348.002
347.927
347.783
347.476
346.737
344.813
340.675
333.013
333.079
340.826
344.959
346.835
347.544
347.831
347.963
348.03
348.065
348.082
348.09
348.092
348.092
348.09
348.089
348.088
348.087
348.086
348.084
348.08
348.07
348.05
348.013
347.945
347.811
347.523
346.816
344.944
340.816
333.071
333.108
340.897
345.021
346.872
347.566
347.845
347.972
348.036
348.069
348.086
348.093
348.095
348.095
348.093
348.092
348.091
348.09
348.09
348.088
348.084
348.075
348.056
348.021
347.955
347.827
347.547
346.855
345.008
340.888
333.101
333.109
340.898
345.023
346.874
347.568
347.848
347.975
348.038
348.071
348.088
348.095
348.097
348.096
348.095
348.094
348.093
348.092
348.091
348.09
348.086
348.077
348.059
348.024
347.958
347.83
347.55
346.858
345.01
340.889
333.102
333.083
340.832
344.965
346.842
347.551
347.838
347.969
348.036
348.07
348.087
348.094
348.097
348.096
348.095
348.093
348.092
348.092
348.092
348.09
348.086
348.077
348.058
348.021
347.953
347.82
347.532
346.824
344.951
340.821
333.075
333.031
340.699
344.844
346.773
347.512
347.816
347.957
348.028
348.066
348.084
348.092
348.094
348.094
348.092
348.091
348.09
348.09
348.089
348.088
348.084
348.075
348.054
348.015
347.941
347.798
347.492
346.751
344.825
340.685
333.02
332.954
340.499
344.654
346.662
347.453
347.784
347.939
348.018
348.059
348.079
348.088
348.09
348.089
348.087
348.085
348.084
348.084
348.084
348.084
348.08
348.071
348.049
348.005
347.923
347.764
347.43
346.637
344.629
340.48
332.94
332.853
340.233
344.389
346.507
347.372
347.742
347.917
348.005
348.051
348.072
348.08
348.081
348.079
348.077
348.074
348.073
348.074
348.074
348.075
348.073
348.064
348.042
347.994
347.902
347.723
347.347
346.478
344.357
340.207
332.835
332.734
339.904
344.045
346.3
347.269
347.692
347.894
347.993
348.04
348.06
348.066
348.065
348.062
348.058
348.055
348.054
348.055
348.056
348.059
348.059
348.054
348.033
347.985
347.883
347.676
347.244
346.267
344.007
339.871
332.711
332.605
339.52
343.628
346.034
347.144
347.64
347.874
347.981
348.026
348.04
348.04
348.036
348.03
348.026
348.022
348.021
348.021
348.024
348.028
348.033
348.034
348.022
347.978
347.869
347.63
347.124
346.001
343.586
339.481
332.576
332.479
339.096
343.156
345.711
347.013
347.602
347.864
347.968
347.998
347.999
347.991
347.981
347.974
347.968
347.964
347.962
347.961
347.964
347.971
347.981
347.993
347.997
347.971
347.869
347.604
347.005
345.687
343.118
339.056
332.446
332.377
338.66
342.693
345.402
346.928
347.61
347.868
347.936
347.93
347.908
347.888
347.875
347.867
347.862
347.859
347.856
347.853
347.853
347.859
347.874
347.899
347.93
347.944
347.885
347.629
346.94
345.399
342.671
338.627
332.346
332.325
338.285
342.427
345.336
347.022
347.698
347.849
347.813
347.742
347.69
347.663
347.654
347.653
347.654
347.653
347.649
347.641
347.634
347.631
347.641
347.675
347.738
347.825
347.878
347.737
347.063
345.366
342.434
338.273
332.304
332.391
338.246
342.835
345.956
347.462
347.778
347.608
347.375
347.223
347.157
347.146
347.162
347.184
347.201
347.207
347.201
347.183
347.157
347.129
347.112
347.128
347.209
347.385
347.644
347.838
347.533
346.021
342.879
338.267
332.39
332.885
339.345
344.783
347.581
347.968
347.285
346.524
346.047
345.853
345.835
345.898
345.982
346.057
346.11
346.133
346.126
346.088
346.024
345.938
345.848
345.788
345.821
346.044
346.558
347.358
348.068
347.685
344.867
339.402
332.92
335.54
342.882
349.31
349.105
347.015
344.995
343.717
343.123
342.966
343.033
343.186
343.351
343.49
343.585
343.63
343.622
343.562
343.453
343.302
343.129
342.975
342.92
343.103
343.738
345.067
347.135
349.251
349.452
342.974
335.588
331.331
359.466
352.301
346.698
342.421
340.017
338.913
338.538
338.519
338.649
338.821
338.984
339.115
339.204
339.246
339.24
339.185
339.084
338.941
338.768
338.592
338.466
338.501
338.91
340.069
342.543
346.883
352.518
359.714
331.36
443.909
362.035
346.883
337.624
333.866
332.335
331.716
331.489
331.437
331.452
331.487
331.525
331.557
331.579
331.588
331.583
331.565
331.534
331.492
331.446
331.405
331.388
331.445
331.69
332.347
333.946
337.804
347.168
362.403
444.608
436.441
358.146
344.082
335.736
332.599
331.37
330.864
330.662
330.596
330.582
330.587
330.599
330.613
330.625
330.635
330.642
330.645
330.644
330.643
330.641
330.645
330.664
330.724
330.902
331.351
332.475
335.442
343.597
357.497
435.273
331.152
356.743
349.897
344.634
340.783
338.68
337.718
337.374
337.327
337.404
337.518
337.63
337.723
337.791
337.829
337.838
337.816
337.764
337.686
337.587
337.481
337.4
337.425
337.719
338.597
340.591
344.338
349.55
356.355
331.136
335.084
341.989
347.746
347.411
345.438
343.562
342.357
341.775
341.594
341.622
341.733
341.86
341.971
342.052
342.099
342.109
342.083
342.02
341.926
341.81
341.701
341.658
341.801
342.324
343.451
345.255
347.19
347.544
341.884