/*--------------------------------*- C++ -*----------------------------------*\
| =========                 |                                                 |
| \\      /  F ield         | OpenFOAM: The Open Source CFD Toolbox           |
|  \\    /   O peration     | Version:  2312                                  |
|   \\  /    A nd           | Website:  www.openfoam.com                      |
|    \\/     M anipulation  |                                                 |
\*---------------------------------------------------------------------------*/
FoamFile
{
    version     2.0;
    format      ascii;
    arch        "LSB;label=32;scalar=64";
    class       volVectorField;
    location    "550";
    object      U;
}
// * * * * * * * * * * * * * * * * * * * * * * * * * * * * * * * * * * * * * //

dimensions      [0 1 -1 0 0 0 0];

internalField   nonuniform List<vector> 
27000
(
(-5.50857e-05 9.93338e-05 0.107575)
(-0.000203472 0.000218213 0.0764276)
(-0.000104121 0.000225785 0.0818353)
(-7.28026e-05 0.000203883 0.0834462)
(-3.94186e-05 0.000197485 0.0853185)
(-1.86602e-05 0.000196944 0.0867759)
(-3.40138e-06 0.000198749 0.0878591)
(7.45064e-06 0.000201258 0.0887226)
(1.4269e-05 0.000203957 0.0894417)
(1.73113e-05 0.000206721 0.0900151)
(1.73435e-05 0.000209303 0.0904614)
(1.51437e-05 0.000211613 0.0908039)
(1.13798e-05 0.000213406 0.091054)
(6.60694e-06 0.0002146 0.0912175)
(1.28246e-06 0.00021515 0.091299)
(-4.18361e-06 0.000215056 0.0913011)
(-9.39412e-06 0.000214318 0.0912237)
(-1.39181e-05 0.000212945 0.0910645)
(-1.72945e-05 0.000211002 0.090819)
(-1.89282e-05 0.000208588 0.0904818)
(-1.81365e-05 0.000205972 0.0900407)
(-1.40998e-05 0.000203283 0.0894712)
(-6.07713e-06 0.000200805 0.0887545)
(6.11792e-06 0.000198769 0.0878916)
(2.28558e-05 0.000197627 0.0868067)
(4.47578e-05 0.000199183 0.0853443)
(7.93523e-05 0.000206305 0.0834619)
(0.000112151 0.00023146 0.0818348)
(0.000209126 0.000221334 0.0764057)
(6.26843e-05 0.000106311 0.107524)
(0.000296697 -0.000133564 0.062717)
(0.000125553 -5.14124e-05 0.0837376)
(9.64021e-05 0.00015226 0.0917443)
(6.05705e-05 0.00020644 0.0944832)
(5.48759e-05 0.000231565 0.0958059)
(5.67615e-05 0.000247745 0.0967062)
(5.80383e-05 0.000260981 0.097349)
(5.7852e-05 0.000272265 0.0978214)
(5.56018e-05 0.000281636 0.0981784)
(5.10602e-05 0.000289176 0.098447)
(4.42944e-05 0.000295126 0.0986462)
(3.57493e-05 0.000299626 0.0987924)
(2.58856e-05 0.00030285 0.0988961)
(1.51439e-05 0.000304877 0.0989637)
(3.91297e-06 0.000305802 0.0989986)
(-7.41627e-06 0.000305652 0.0990025)
(-1.84728e-05 0.000304448 0.0989754)
(-2.88897e-05 0.000302154 0.0989156)
(-3.82507e-05 0.000298705 0.0988193)
(-4.61432e-05 0.000294036 0.09868)
(-5.20969e-05 0.00028802 0.0984859)
(-5.57531e-05 0.000280546 0.0982196)
(-5.70595e-05 0.000271466 0.0978606)
(-5.63281e-05 0.000260768 0.0973804)
(-5.42892e-05 0.000248443 0.0967231)
(-5.18487e-05 0.000233237 0.0958014)
(-5.74859e-05 0.000209406 0.0944526)
(-9.36714e-05 0.000155575 0.0916896)
(-0.000122435 -4.6765e-05 0.0836765)
(-0.000301597 -0.000137456 0.0626965)
(9.78209e-05 0.000138566 0.0806474)
(0.000123104 0.000160963 0.0900403)
(0.000160907 0.000213647 0.0968948)
(0.000148833 0.000244783 0.0985374)
(0.000130624 0.000264526 0.0990452)
(0.000116216 0.000278465 0.0993173)
(0.000103938 0.000289669 0.0995201)
(9.28035e-05 0.000299103 0.0996762)
(8.20523e-05 0.00030701 0.0997951)
(7.09742e-05 0.000313398 0.0998841)
(5.92e-05 0.00031834 0.0999493)
(4.66146e-05 0.000322009 0.0999962)
(3.33341e-05 0.000324534 0.100029)
(1.95357e-05 0.000326081 0.100052)
(5.46325e-06 0.000326718 0.100065)
(-8.65897e-06 0.000326533 0.100069)
(-2.25732e-05 0.000325502 0.100065)
(-3.60398e-05 0.00032362 0.10005)
(-4.886e-05 0.000320795 0.100024)
(-6.08602e-05 0.000316928 0.0999815)
(-7.19987e-05 0.000311904 0.0999181)
(-8.24157e-05 0.000305624 0.0998266)
(-9.25987e-05 0.000298072 0.0996995)
(-0.00010332 0.000289202 0.0995287)
(-0.000115364 0.000278801 0.0993051)
(-0.000129878 0.000265679 0.0990084)
(-0.000148479 0.000246495 0.0984779)
(-0.000161153 0.000215492 0.0968257)
(-0.000124554 0.000161167 0.0899927)
(-0.000100143 0.000136199 0.0806375)
(0.00013881 6.37033e-05 0.0839965)
(0.000150602 0.00014728 0.0940508)
(0.000180564 0.000220003 0.0982834)
(0.000174155 0.000244031 0.0993482)
(0.000159923 0.000258714 0.0996651)
(0.000143098 0.000269486 0.0998038)
(0.000126394 0.000278306 0.0998999)
(0.00011055 0.000286014 0.0999785)
(9.55524e-05 0.000292673 0.100042)
(8.09991e-05 0.000298235 0.100091)
(6.6501e-05 0.000302631 0.100128)
(5.18215e-05 0.000305897 0.100154)
(3.68725e-05 0.000308149 0.100173)
(2.16882e-05 0.000309488 0.100186)
(6.35422e-06 0.000310027 0.100194)
(-8.97346e-06 0.000309803 0.100198)
(-2.41607e-05 0.000308857 0.100197)
(-3.90771e-05 0.000307132 0.100191)
(-5.36436e-05 0.000304585 0.100177)
(-6.78794e-05 0.000301123 0.100153)
(-8.19158e-05 0.0002967 0.100115)
(-9.60651e-05 0.000291305 0.100059)
(-0.000110771 0.000285011 0.0999842)
(-0.000126478 0.000277889 0.0998895)
(-0.000143274 0.000269689 0.0997746)
(-0.00016033 0.000259512 0.0996182)
(-0.00017498 0.000245078 0.0992906)
(-0.000181955 0.000220589 0.09823)
(-0.000152794 0.000146299 0.0940244)
(-0.000142373 5.94406e-05 0.0840006)
(0.000136487 9.21728e-05 0.0865237)
(0.000171052 0.000156806 0.096031)
(0.000199341 0.000213685 0.0990067)
(0.000191163 0.000234458 0.099651)
(0.00017684 0.000246362 0.0998478)
(0.000159517 0.000254767 0.0999318)
(0.000141178 0.000261612 0.0999863)
(0.000123116 0.000267587 0.100033)
(0.000105707 0.000272884 0.100073)
(8.88897e-05 0.000277414 0.100107)
(7.24274e-05 0.000281092 0.100134)
(5.61288e-05 0.000283876 0.100154)
(3.98457e-05 0.000285807 0.100168)
(2.3518e-05 0.000286949 0.100179)
(7.16763e-06 0.000287379 0.100185)
(-9.16297e-06 0.000287151 0.100188)
(-2.54054e-05 0.000286272 0.100188)
(-4.15229e-05 0.000284742 0.100183)
(-5.75289e-05 0.00028251 0.100171)
(-7.35189e-05 0.00027956 0.100151)
(-8.96877e-05 0.000275885 0.10012)
(-0.000106285 0.000271544 0.100079)
(-0.000123566 0.000266631 0.100027)
(-0.000141644 0.000261138 0.099967)
(-0.000160098 0.000254817 0.0998992)
(-0.00017764 0.000246769 0.0998062)
(-0.000192159 0.000234924 0.0996088)
(-0.00020057 0.000213576 0.0989765)
(-0.000172767 0.000155275 0.0960264)
(-0.000138694 8.85314e-05 0.0865385)
(0.000143562 9.32768e-05 0.0883428)
(0.000188065 0.000160553 0.0971821)
(0.000214458 0.0002051 0.0994095)
(0.000204872 0.000220517 0.0998324)
(0.000189682 0.000229693 0.0999445)
(0.000171624 0.00023622 0.0999872)
(0.000152395 0.000241519 0.100014)
(0.000133073 0.000246172 0.100039)
(0.000114176 0.000250308 0.100064)
(9.57854e-05 0.000253898 0.100088)
(7.7835e-05 0.000256862 0.100108)
(6.01803e-05 0.000259153 0.100125)
(4.27009e-05 0.000260751 0.100137)
(2.53095e-05 0.000261699 0.100146)
(7.96012e-06 0.000262031 0.100152)
(-9.35024e-06 0.000261793 0.100154)
(-2.66216e-05 0.000261003 0.100153)
(-4.38761e-05 0.000259662 0.100148)
(-6.11767e-05 0.000257771 0.100136)
(-7.86423e-05 0.000255331 0.100119)
(-9.64389e-05 0.000252384 0.100094)
(-0.000114723 0.000248993 0.100063)
(-0.000133599 0.000245193 0.100029)
(-0.000152956 0.000240955 0.0999941)
(-0.000172277 0.000236033 0.09996)
(-0.000190408 0.000229737 0.0999154)
(-0.00020563 0.000220504 0.099809)
(-0.000215202 0.000204577 0.099401)
(-0.000189043 0.000158958 0.0971943)
(-0.00014479 9.03528e-05 0.0883629)
(0.000150582 9.2813e-05 0.0897044)
(0.000203385 0.000155562 0.0979049)
(0.000227347 0.000191592 0.0996509)
(0.000216535 0.000203487 0.0999497)
(0.000200355 0.00021045 0.100011)
(0.000181593 0.000215442 0.100024)
(0.000161668 0.000219526 0.10003)
(0.000141522 0.000223118 0.100039)
(0.000121596 0.000226317 0.100052)
(0.000102062 0.000229103 0.100066)
(8.29204e-05 0.000231428 0.100081)
(6.41094e-05 0.000233236 0.100094)
(4.55298e-05 0.000234513 0.100105)
(2.70949e-05 0.000235256 0.100113)
(8.74509e-06 0.000235495 0.100118)
(-9.56365e-06 0.000235255 0.10012)
(-2.78727e-05 0.000234562 0.100118)
(-4.623e-05 0.000233428 0.100112)
(-6.47186e-05 0.000231874 0.100102)
(-8.34469e-05 0.000229926 0.100087)
(-0.000102525 0.000227628 0.100068)
(-0.00012204 0.00022502 0.100048)
(-0.000141977 0.000222113 0.100029)
(-0.000162159 0.000218857 0.100014)
(-0.000182106 0.000215053 0.100006)
(-0.000200849 0.000210216 0.0999958)
(-0.000216932 0.000203185 0.0999431)
(-0.000227625 0.000190946 0.0996581)
(-0.000203737 0.000154269 0.0979265)
(-0.00015106 9.08829e-05 0.0897257)
(0.000157628 8.91307e-05 0.0907339)
(0.00021678 0.000145989 0.0983853)
(0.000238351 0.000174898 0.0998029)
(0.000226481 0.000184165 0.100025)
(0.000209425 0.000189497 0.100057)
(0.000190027 0.000193287 0.100052)
(0.000169562 0.000196394 0.100043)
(0.000148798 0.000199116 0.10004)
(0.000128129 0.000201531 0.100043)
(0.000107725 0.000203632 0.10005)
(8.76339e-05 0.000205385 0.10006)
(6.78302e-05 0.000206754 0.10007)
(4.82534e-05 0.000207714 0.100079)
(2.8832e-05 0.000208263 0.100086)
(9.49972e-06 0.000208411 0.10009)
(-9.79912e-06 0.00020818 0.100091)
(-2.91164e-05 0.000207591 0.100089)
(-4.85183e-05 0.000206672 0.100084)
(-6.80758e-05 0.000205446 0.100075)
(-8.78705e-05 0.000203952 0.100064)
(-0.000107975 0.00020222 0.100051)
(-0.000128406 0.000200275 0.100039)
(-0.000149107 0.000198108 0.100033)
(-0.000169891 0.000195657 0.100034)
(-0.000190338 0.000192784 0.100044)
(-0.000209662 0.00018912 0.100054)
(-0.000226581 0.000183789 0.100031)
(-0.0002383 0.000174349 0.099819)
(-0.000216742 0.000145172 0.0984098)
(-0.000157643 8.80819e-05 0.0907526)
(0.000164846 8.26284e-05 0.0915339)
(0.000228542 0.000132813 0.0987191)
(0.000247831 0.000155943 0.0999021)
(0.000234948 0.000163165 0.100074)
(0.000217105 0.000167232 0.100087)
(0.000197153 0.000170079 0.100071)
(0.000176242 0.000172385 0.100054)
(0.000155014 0.000174392 0.100042)
(0.000133786 0.000176155 0.100039)
(0.000112716 0.00017768 0.100041)
(9.18627e-05 0.000178943 0.100046)
(7.12271e-05 0.000179924 0.100053)
(5.07728e-05 0.000180602 0.10006)
(3.04463e-05 0.000180972 0.100066)
(1.01948e-05 0.000181041 0.100069)
(-1.00358e-05 0.000180824 0.10007)
(-3.02983e-05 0.000180346 0.100068)
(-5.06456e-05 0.000179629 0.100064)
(-7.11379e-05 0.00017871 0.100057)
(-9.18261e-05 0.000177613 0.100049)
(-0.000112741 0.000176367 0.100041)
(-0.000133876 0.000174979 0.100037)
(-0.000155154 0.000173426 0.10004)
(-0.0001764 0.000171656 0.100051)
(-0.000197283 0.000169557 0.100071)
(-0.000217151 0.000166859 0.100092)
(-0.000234868 0.000162857 0.100086)
(-0.00024762 0.000155637 0.0999217)
(-0.000228331 0.00013247 0.0987422)
(-0.000164655 8.22618e-05 0.0915488)
(0.000171599 7.36741e-05 0.0921581)
(0.000238698 0.000116795 0.098958)
(0.000255934 0.000135161 0.0999687)
(0.000242108 0.000140747 0.100103)
(0.000223537 0.000143829 0.100105)
(0.000203087 0.000145922 0.100083)
(0.000181813 0.000147594 0.100061)
(0.000160221 0.000149017 0.100045)
(0.000138571 0.000150253 0.100037)
(0.000116989 0.000151303 0.100036)
(9.55308e-05 0.000152163 0.100038)
(7.42088e-05 0.000152818 0.100043)
(5.30027e-05 0.000153257 0.100048)
(3.18826e-05 0.000153478 0.100052)
(1.08066e-05 0.000153484 0.100055)
(-1.02632e-05 0.00015329 0.100056)
(-3.13672e-05 0.000152916 0.100054)
(-5.25449e-05 0.000152389 0.100051)
(-7.38296e-05 0.000151734 0.100046)
(-9.52505e-05 0.000150978 0.100041)
(-0.000116813 0.000150135 0.100038)
(-0.000138491 0.000149202 0.100039)
(-0.000160214 0.000148155 0.100047)
(-0.000181838 0.000146945 0.100064)
(-0.000203099 0.000145479 0.100089)
(-0.00022349 0.000143558 0.100116)
(-0.000241962 0.000140612 0.100119)
(-0.000255693 0.000135128 0.0999883)
(-0.000238455 0.000116858 0.0989779)
(-0.000171358 7.37568e-05 0.0921696)
(0.00017752 6.28158e-05 0.092634)
(0.000247202 9.85751e-05 0.0991294)
(0.000262683 0.00011288 0.100013)
(0.000248016 0.000117127 0.100121)
(0.000228814 0.000119403 0.100115)
(0.00020794 0.000120914 0.10009)
(0.000186358 0.000122077 0.100065)
(0.000164482 0.000123041 0.100048)
(0.000142508 0.000123853 0.100037)
(0.000120532 0.000124528 0.100033)
(9.85992e-05 0.000125065 0.100034)
(7.67209e-05 0.00012546 0.100037)
(5.48945e-05 0.000125709 0.10004)
(3.31007e-05 0.000125813 0.100044)
(1.132e-05 0.000125775 0.100046)
(-1.04716e-05 0.00012561 0.100047)
(-3.22954e-05 0.000125335 0.100046)
(-5.41704e-05 0.000124973 0.100043)
(-7.61118e-05 0.000124545 0.10004)
(-9.81231e-05 0.000124068 0.100037)
(-0.000120196 0.000123552 0.100037)
(-0.0001423 0.000122984 0.100041)
(-0.000164373 0.000122343 0.100053)
(-0.000186309 0.000121579 0.100072)
(-0.000207904 0.000120619 0.100099)
(-0.000228748 0.000119299 0.100128)
(-0.00024789 0.000117195 0.100137)
(-0.000262493 0.000113103 0.100031)
(-0.000247002 9.89277e-05 0.0991456)
(-0.000177306 6.31622e-05 0.0926427)
(0.000182422 5.04865e-05 0.0929864)
(0.000254029 7.8654e-05 0.0992499)
(0.000268103 8.93959e-05 0.100043)
(0.00025273 9.25111e-05 0.100131)
(0.000233004 9.41276e-05 0.100119)
(0.000211778 9.51598e-05 0.100092)
(0.00018995 9.59191e-05 0.100067)
(0.000167852 9.65189e-05 0.100049)
(0.000145632 9.70001e-05 0.100038)
(0.000123357 9.73826e-05 0.100032)
(0.000101056 9.76693e-05 0.100032)
(7.87438e-05 9.78662e-05 0.100033)
(5.64197e-05 9.79719e-05 0.100036)
(3.40826e-05 9.79913e-05 0.100039)
(1.17259e-05 9.79299e-05 0.10004)
(-1.06554e-05 9.77993e-05 0.100041)
(-3.30653e-05 9.76151e-05 0.10004)
(-5.5504e-05 9.7394e-05 0.100039)
(-7.79668e-05 9.71526e-05 0.100037)
(-0.000100442 9.69018e-05 0.100036)
(-0.000122911 9.66412e-05 0.100037)
(-0.000145343 9.63614e-05 0.100043)
(-0.000167691 9.60346e-05 0.100056)
(-0.000189875 9.56209e-05 0.100076)
(-0.000211746 9.50569e-05 0.100103)
(-0.000232972 9.42159e-05 0.100132)
(-0.000252665 9.27758e-05 0.100146)
(-0.000267996 8.98217e-05 0.100058)
(-0.000253907 7.91911e-05 0.0992628)
(-0.000182264 5.09636e-05 0.0929929)
(0.000186192 3.70671e-05 0.0932347)
(0.000259176 5.74603e-05 0.0993313)
(0.000272195 6.49739e-05 0.100061)
(0.000256282 6.70979e-05 0.100135)
(0.000236154 6.81544e-05 0.10012)
(0.00021466 6.87888e-05 0.100092)
(0.000192642 6.9221e-05 0.100067)
(0.000170379 6.95311e-05 0.100049)
(0.000147978 6.97573e-05 0.100038)
(0.000125482 6.99138e-05 0.100032)
(0.00010291 7.00147e-05 0.100031)
(8.02706e-05 7.00635e-05 0.100031)
(5.75715e-05 7.00678e-05 0.100034)
(3.48191e-05 7.00318e-05 0.100036)
(1.20216e-05 6.99632e-05 0.100037)
(-1.08119e-05 6.98717e-05 0.100038)
(-3.36698e-05 6.97691e-05 0.100037)
(-5.65365e-05 6.96682e-05 0.100036)
(-7.93922e-05 6.95782e-05 0.100035)
(-0.000102215 6.95048e-05 0.100035)
(-0.000124978 6.94442e-05 0.100038)
(-0.000147652 6.93834e-05 0.100045)
(-0.000170204 6.92979e-05 0.100057)
(-0.000192579 6.91533e-05 0.100077)
(-0.000214662 6.88964e-05 0.100104)
(-0.000236178 6.84333e-05 0.100133)
(-0.000256293 6.75359e-05 0.100149)
(-0.000272177 6.55435e-05 0.100075)
(-0.000259134 5.80971e-05 0.0993418)
(-0.000186096 3.75873e-05 0.0932398)
(0.000188762 2.28991e-05 0.0933931)
(0.000262644 3.5382e-05 0.0993815)
(0.000274965 3.98784e-05 0.100072)
(0.000258691 4.11037e-05 0.100137)
(0.000238293 4.16634e-05 0.100119)
(0.000216618 4.1954e-05 0.100091)
(0.000194472 4.21105e-05 0.100067)
(0.000172095 4.21873e-05 0.100049)
(0.000149571 4.22092e-05 0.100038)
(0.000126926 4.2195e-05 0.100032)
(0.000104168 4.21545e-05 0.10003)
(8.13051e-05 4.20976e-05 0.100031)
(5.83475e-05 4.20318e-05 0.100032)
(3.53092e-05 4.19637e-05 0.100034)
(1.22071e-05 4.19011e-05 0.100035)
(-1.09389e-05 4.18514e-05 0.100036)
(-3.41049e-05 4.18233e-05 0.100036)
(-5.72649e-05 4.18236e-05 0.100035)
(-8.03893e-05 4.18575e-05 0.100035)
(-0.000103447 4.1924e-05 0.100035)
(-0.000126408 4.2018e-05 0.100038)
(-0.000149248 4.21248e-05 0.100045)
(-0.000171938 4.22243e-05 0.100058)
(-0.00019444 4.22874e-05 0.100077)
(-0.000216668 4.22753e-05 0.100103)
(-0.000238378 4.21226e-05 0.100132)
(-0.000258772 4.16839e-05 0.10015)
(-0.000275024 4.05476e-05 0.100084)
(-0.00026267 3.60595e-05 0.0993904)
(-0.000188717 2.34112e-05 0.0933973)
(0.000190089 8.29052e-06 0.0934701)
(0.00026443 1.27745e-05 0.0994053)
(0.000276416 1.43695e-05 0.100076)
(0.000259964 1.4748e-05 0.100137)
(0.000239435 1.48475e-05 0.100119)
(0.000217668 1.48251e-05 0.10009)
(0.000195455 1.47384e-05 0.100066)
(0.000173018 1.4613e-05 0.100048)
(0.000150426 1.44675e-05 0.100038)
(0.000127697 1.43139e-05 0.100032)
(0.000104836 1.41639e-05 0.10003)
(8.18495e-05 1.40275e-05 0.10003)
(5.87492e-05 1.39128e-05 0.100032)
(3.5553e-05 1.38282e-05 0.100033)
(1.22833e-05 1.37795e-05 0.100034)
(-1.10336e-05 1.37733e-05 0.100035)
(-3.43684e-05 1.38135e-05 0.100035)
(-5.7688e-05 1.39026e-05 0.100035)
(-8.09573e-05 1.40401e-05 0.100034)
(-0.000104142 1.42218e-05 0.100035)
(-0.000127211 1.44393e-05 0.100038)
(-0.000150137 1.46802e-05 0.100045)
(-0.000172901 1.49279e-05 0.100058)
(-0.000195469 1.51611e-05 0.100076)
(-0.000217768 1.53548e-05 0.100102)
(-0.000239575 1.54735e-05 0.100131)
(-0.000260104 1.54495e-05 0.10015)
(-0.000276533 1.51076e-05 0.100088)
(-0.000264509 1.34622e-05 0.0994136)
(-0.000190078 8.7718e-06 0.093474)
(0.000190149 -6.47266e-06 0.0934701)
(0.000264534 -1.00248e-05 0.0994052)
(0.000276545 -1.12966e-05 0.100076)
(0.000260105 -1.1747e-05 0.100137)
(0.000239581 -1.20946e-05 0.100119)
(0.000217815 -1.24176e-05 0.10009)
(0.000195597 -1.27359e-05 0.100066)
(0.000173151 -1.30479e-05 0.100048)
(0.000150545 -1.33479e-05 0.100037)
(0.000127798 -1.36258e-05 0.100032)
(0.000104916 -1.38722e-05 0.10003)
(8.19039e-05 -1.4077e-05 0.10003)
(5.87761e-05 -1.42311e-05 0.100032)
(3.55509e-05 -1.43268e-05 0.100033)
(1.22516e-05 -1.43581e-05 0.100034)
(-1.10946e-05 -1.43215e-05 0.100035)
(-3.44571e-05 -1.42166e-05 0.100035)
(-5.78023e-05 -1.40454e-05 0.100034)
(-8.10948e-05 -1.3814e-05 0.100034)
(-0.000104299 -1.35293e-05 0.100035)
(-0.000127383 -1.32018e-05 0.100038)
(-0.000150322 -1.28419e-05 0.100045)
(-0.000173093 -1.24618e-05 0.100057)
(-0.000195666 -1.20734e-05 0.100076)
(-0.000217966 -1.16879e-05 0.100101)
(-0.000239768 -1.13121e-05 0.100131)
(-0.000260289 -1.09354e-05 0.10015)
(-0.000276703 -1.04988e-05 0.100087)
(-0.000264647 -9.33485e-06 0.0994137)
(-0.000190159 -6.02309e-06 0.0934742)
(0.000188938 -2.11158e-05 0.0933929)
(0.000262949 -3.26846e-05 0.0993812)
(0.000275346 -3.68603e-05 0.100071)
(0.000259106 -3.81566e-05 0.100137)
(0.000238724 -3.89604e-05 0.100119)
(0.000217049 -3.95911e-05 0.100091)
(0.00019489 -4.01453e-05 0.100066)
(0.000172487 -4.06504e-05 0.100048)
(0.000149923 -4.11091e-05 0.100037)
(0.000127224 -4.15168e-05 0.100032)
(0.000104402 -4.18644e-05 0.10003)
(8.14653e-05 -4.21422e-05 0.10003)
(5.84266e-05 -4.23397e-05 0.100032)
(3.53024e-05 -4.24501e-05 0.100034)
(1.21127e-05 -4.24666e-05 0.100035)
(-1.11193e-05 -4.23894e-05 0.100036)
(-3.4368e-05 -4.22206e-05 0.100035)
(-5.76043e-05 -4.1968e-05 0.100035)
(-8.07963e-05 -4.16411e-05 0.100034)
(-0.000103912 -4.12519e-05 0.100034)
(-0.000126921 -4.08108e-05 0.100037)
(-0.000149796 -4.03274e-05 0.100044)
(-0.00017251 -3.98085e-05 0.100057)
(-0.000195025 -3.92574e-05 0.100076)
(-0.000217254 -3.86718e-05 0.100102)
(-0.000238954 -3.80264e-05 0.100131)
(-0.000259324 -3.72336e-05 0.100149)
(-0.000275531 -3.59965e-05 0.100083)
(-0.000263086 -3.19773e-05 0.0993906)
(-0.00018896 -2.06798e-05 0.0933977)
(0.000186473 -3.53512e-05 0.0932345)
(0.000259667 -5.48648e-05 0.0993309)
(0.000272809 -6.20637e-05 0.100061)
(0.000256951 -6.42559e-05 0.100135)
(0.000236848 -6.55493e-05 0.100119)
(0.000215355 -6.65129e-05 0.100091)
(0.000193316 -6.73276e-05 0.100066)
(0.00017101 -6.80504e-05 0.100048)
(0.000148544 -6.86934e-05 0.100037)
(0.000125962 -6.92554e-05 0.100032)
(0.000103286 -6.97271e-05 0.10003)
(8.05272e-05 -7.00978e-05 0.100031)
(5.76968e-05 -7.03565e-05 0.100033)
(3.48063e-05 -7.04927e-05 0.100035)
(1.18675e-05 -7.0504e-05 0.100037)
(-1.11062e-05 -7.03887e-05 0.100037)
(-3.40975e-05 -7.01553e-05 0.100037)
(-5.70882e-05 -6.98146e-05 0.100035)
(-8.00553e-05 -6.93811e-05 0.100034)
(-0.000102973 -6.88711e-05 0.100034)
(-0.000125813 -6.82963e-05 0.100036)
(-0.000148548 -6.76649e-05 0.100043)
(-0.00017114 -6.69798e-05 0.100055)
(-0.000193536 -6.62365e-05 0.100075)
(-0.000215623 -6.54168e-05 0.100102)
(-0.000237124 -6.44664e-05 0.100131)
(-0.000257203 -6.32116e-05 0.100148)
(-0.000273015 -6.1109e-05 0.100074)
(-0.000259823 -5.41069e-05 0.099342)
(-0.000186502 -3.48951e-05 0.0932403)
(0.000182793 -4.88644e-05 0.0929862)
(0.00025468 -7.62056e-05 0.0992496)
(0.000268917 -8.66409e-05 0.100042)
(0.000253621 -8.98203e-05 0.10013)
(0.000233926 -9.16648e-05 0.100118)
(0.000212702 -9.30083e-05 0.100091)
(0.000190844 -9.41309e-05 0.100066)
(0.000168688 -9.51163e-05 0.100048)
(0.000146381 -9.59905e-05 0.100037)
(0.000123991 -9.675e-05 0.100032)
(0.000101552 -9.73864e-05 0.100031)
(7.90803e-05 -9.78848e-05 0.100033)
(5.65833e-05 -9.82315e-05 0.100036)
(3.40613e-05 -9.84164e-05 0.100039)
(1.15159e-05 -9.84335e-05 0.10004)
(-1.1052e-05 -9.82862e-05 0.100041)
(-3.36424e-05 -9.79839e-05 0.10004)
(-5.62481e-05 -9.75423e-05 0.100038)
(-7.88614e-05 -9.69824e-05 0.100035)
(-0.000101467 -9.63218e-05 0.100034)
(-0.000124042 -9.55772e-05 0.100035)
(-0.000146556 -9.47558e-05 0.100041)
(-0.000168961 -9.38561e-05 0.100053)
(-0.000191178 -9.28677e-05 0.100073)
(-0.000213057 -9.17583e-05 0.100101)
(-0.000234265 -9.04374e-05 0.10013)
(-0.000253912 -8.86405e-05 0.100144)
(-0.000269149 -8.55605e-05 0.100057)
(-0.000254856 -7.53444e-05 0.0992629)
(-0.000182829 -4.83389e-05 0.0929935)
(0.000177963 -6.13088e-05 0.092634)
(0.000247978 -9.63093e-05 0.0991293)
(0.00026366 -0.000110321 0.100013)
(0.000249082 -0.000114629 0.10012)
(0.000229921 -0.000117119 0.100114)
(0.000209046 -0.000118922 0.100089)
(0.000187429 -0.000120419 0.100064)
(0.000165481 -0.00012174 0.100047)
(0.0001434 -0.000122909 0.100037)
(0.000121287 -0.000123929 0.100033)
(9.91868e-05 -0.000124786 0.100034)
(7.712e-05 -0.000125459 0.100037)
(5.50838e-05 -0.000125932 0.100041)
(3.30698e-05 -0.000126191 0.100044)
(1.10623e-05 -0.000126232 0.100046)
(-1.09562e-05 -0.000126058 0.100047)
(-3.2998e-05 -0.000125681 0.100045)
(-5.50787e-05 -0.000125122 0.100042)
(-7.72047e-05 -0.000124405 0.100038)
(-9.93763e-05 -0.000123555 0.100035)
(-0.000121583 -0.00012259 0.100034)
(-0.00014379 -0.000121519 0.100038)
(-0.000165936 -0.000120339 0.100049)
(-0.000187917 -0.000119032 0.100069)
(-0.000209526 -0.000117551 0.100096)
(-0.000230353 -0.000115766 0.100125)
(-0.000249443 -0.000113305 0.100134)
(-0.000263933 -0.000109077 0.10003)
(-0.00024819 -9.5278e-05 0.0991452)
(-0.000178016 -6.06384e-05 0.0926432)
(0.000172095 -7.22947e-05 0.0921584)
(0.000239562 -0.00011474 0.0989584)
(0.000257022 -0.000132829 0.0999685)
(0.000243304 -0.000138476 0.100103)
(0.000224776 -0.000141756 0.100104)
(0.000204326 -0.000144116 0.100082)
(0.000183008 -0.000146089 0.10006)
(0.000161334 -0.000147832 0.100045)
(0.000139564 -0.000149386 0.100037)
(0.000117825 -0.000150744 0.100036)
(9.6182e-05 -0.000151889 0.100039)
(7.46469e-05 -0.000152796 0.100044)
(5.32097e-05 -0.000153438 0.100049)
(3.1842e-05 -0.000153804 0.100054)
(1.0511e-05 -0.000153885 0.100056)
(-1.08136e-05 -0.000153689 0.100057)
(-3.2167e-05 -0.000153231 0.100055)
(-5.35781e-05 -0.000152534 0.10005)
(-7.50766e-05 -0.000151625 0.100045)
(-9.6684e-05 -0.000150536 0.100039)
(-0.000118401 -0.000149287 0.100035)
(-0.000140202 -0.000147895 0.100036)
(-0.000162014 -0.000146352 0.100043)
(-0.000183694 -0.000144638 0.10006)
(-0.000204978 -0.000142681 0.100085)
(-0.000225356 -0.000140317 0.100112)
(-0.000243777 -0.000137021 0.100115)
(-0.000257381 -0.000131394 0.0999858)
(-0.000239846 -0.000113461 0.098977)
(-0.0001722 -7.13697e-05 0.0921699)
(0.000165372 -8.13783e-05 0.0915345)
(0.00022945 -0.00013098 0.0987199)
(0.000248989 -0.000153867 0.0999022)
(0.00023622 -0.000161146 0.100073)
(0.000218427 -0.000165398 0.100086)
(0.000198471 -0.000168478 0.10007)
(0.000177512 -0.000171051 0.100053)
(0.000156191 -0.000173334 0.100042)
(0.000134832 -0.000175373 0.100039)
(0.000113597 -0.000177165 0.100042)
(9.25454e-05 -0.000178677 0.100048)
(7.16877e-05 -0.000179878 0.100055)
(5.09869e-05 -0.000180739 0.100063)
(3.04e-05 -0.000181239 0.100068)
(9.87866e-06 -0.000181382 0.100071)
(-1.06265e-05 -0.00018117 0.100072)
(-3.11558e-05 -0.000180625 0.100069)
(-5.17588e-05 -0.000179767 0.100064)
(-7.24849e-05 -0.00017863 0.100056)
(-9.33779e-05 -0.000177242 0.100047)
(-0.000114468 -0.00017564 0.100039)
(-0.000135741 -0.000173839 0.100034)
(-0.000157119 -0.000171841 0.100036)
(-0.000178433 -0.000169607 0.100047)
(-0.000199347 -0.000167058 0.100067)
(-0.000219211 -0.000163941 0.100088)
(-0.000236879 -0.00015961 0.100082)
(-0.000249503 -0.000152245 0.0999183)
(-0.000229884 -0.000129387 0.0987404)
(-0.000165604 -8.00616e-05 0.0915487)
(0.000158168 -8.79919e-05 0.0907351)
(0.000217699 -0.000144393 0.0983866)
(0.000239532 -0.000173094 0.0998029)
(0.00022779 -0.000182429 0.100024)
(0.00021078 -0.000187913 0.100055)
(0.000191375 -0.000191909 0.10005)
(0.00017085 -0.000195235 0.100042)
(0.00014999 -0.000198189 0.10004)
(0.000129185 -0.000200838 0.100044)
(0.000108609 -0.000203162 0.100053)
(8.83223e-05 -0.000205129 0.100063)
(6.8293e-05 -0.000206688 0.100074)
(4.84731e-05 -0.000207806 0.100083)
(2.87883e-05 -0.000208472 0.100089)
(9.18094e-06 -0.000208688 0.100093)
(-1.03945e-05 -0.000208468 0.100094)
(-2.99905e-05 -0.000207831 0.100091)
(-4.96574e-05 -0.000206796 0.100085)
(-6.94604e-05 -0.000205392 0.100075)
(-8.94769e-05 -0.000203651 0.100063)
(-0.000109766 -0.000201615 0.100049)
(-0.000130348 -0.000199309 0.100037)
(-0.000151161 -0.000196745 0.100029)
(-0.000172018 -0.000193883 0.10003)
(-0.000192505 -0.000190596 0.100039)
(-0.00021183 -0.00018655 0.100049)
(-0.000228712 -0.000180908 0.100026)
(-0.000240301 -0.000171339 0.0998147)
(-0.000218403 -0.00014245 0.0984071)
(-0.000158662 -8.61303e-05 0.0907519)
(0.000151137 -9.17788e-05 0.0897061)
(0.000204301 -0.000154202 0.0979062)
(0.000228525 -0.000190096 0.0996504)
(0.000217835 -0.000202034 0.0999481)
(0.0002017 -0.000209137 0.100009)
(0.000182914 -0.000214281 0.100023)
(0.00016293 -0.000218546 0.10003)
(0.000142675 -0.000222321 0.10004)
(0.000122617 -0.000225707 0.100054)
(0.00010292 -0.000228679 0.10007)
(8.35875e-05 -0.00023118 0.100086)
(6.45665e-05 -0.00023315 0.1001)
(4.57516e-05 -0.000234561 0.100111)
(2.70659e-05 -0.000235408 0.100118)
(8.45241e-06 -0.000235708 0.100123)
(-1.01325e-05 -0.000235487 0.100124)
(-2.8714e-05 -0.000234757 0.100121)
(-4.73393e-05 -0.000233538 0.100115)
(-6.60802e-05 -0.00023184 0.100103)
(-8.5034e-05 -0.000229695 0.100087)
(-0.00010431 -0.000227137 0.100067)
(-0.000123979 -0.000224229 0.100046)
(-0.000144037 -0.000220976 0.100026)
(-0.000164296 -0.000217356 0.100011)
(-0.000184283 -0.000213186 0.100002)
(-0.000203034 -0.000208001 0.0999911)
(-0.000219083 -0.000200684 0.0999382)
(-0.000229658 -0.00018833 0.0996534)
(-0.000205413 -0.000151939 0.0979232)
(-0.000152081 -8.9246e-05 0.0897244)
(0.000144149 -9.23342e-05 0.0883445)
(0.000188957 -0.000159466 0.0971826)
(0.000215596 -0.000203902 0.0994079)
(0.000206133 -0.000219372 0.0998298)
(0.000190958 -0.000228632 0.0999421)
(0.000172878 -0.000235278 0.099986)
(0.000153568 -0.000240703 0.100015)
(0.000134154 -0.000245498 0.100042)
(0.000115126 -0.000249777 0.100069)
(9.65868e-05 -0.000253517 0.100094)
(7.84685e-05 -0.000256623 0.100115)
(6.06223e-05 -0.000259049 0.100132)
(4.2933e-05 -0.000260761 0.100145)
(2.53119e-05 -0.000261796 0.100153)
(7.71541e-06 -0.000262185 0.100158)
(-9.8494e-06 -0.000261965 0.10016)
(-2.73833e-05 -0.000261154 0.100158)
(-4.48978e-05 -0.000259752 0.100151)
(-6.24475e-05 -0.000257751 0.100139)
(-8.01401e-05 -0.000255156 0.10012)
(-9.81356e-05 -0.00025201 0.100094)
(-0.000116586 -0.000248363 0.100062)
(-0.000135576 -0.000244281 0.100027)
(-0.000155016 -0.000239726 0.0999914)
(-0.000174377 -0.000234484 0.0999566)
(-0.000192511 -0.000227875 0.0999114)
(-0.000207703 -0.000218381 0.0998046)
(-0.000217157 -0.000202356 0.0993963)
(-0.000190633 -0.00015703 0.0971906)
(-0.000145719 -8.9091e-05 0.0883611)
(0.000137044 -9.13999e-05 0.0865249)
(0.000171868 -0.00015601 0.09603)
(0.000200393 -0.000212827 0.0990036)
(0.000192303 -0.000233596 0.0996476)
(0.000178011 -0.000245542 0.0998456)
(0.000160628 -0.000254021 0.0999316)
(0.000142234 -0.000260948 0.0999886)
(0.000124073 -0.00026702 0.100037)
(0.000106563 -0.000272427 0.10008)
(8.96208e-05 -0.000277069 0.100115)
(7.30157e-05 -0.000280866 0.100143)
(5.65589e-05 -0.000283755 0.100163)
(4.00963e-05 -0.000285784 0.100178)
(2.35698e-05 -0.000286996 0.100188)
(7.00429e-06 -0.000287478 0.100194)
(-9.55569e-06 -0.000287265 0.100196)
(-2.60379e-05 -0.000286384 0.100194)
(-4.23969e-05 -0.000284804 0.100188)
(-5.86372e-05 -0.000282502 0.100175)
(-7.48557e-05 -0.000279436 0.100153)
(-9.12191e-05 -0.000275608 0.100122)
(-0.000107978 -0.000271078 0.100079)
(-0.00012539 -0.000265926 0.100026)
(-0.000143539 -0.000260181 0.0999654)
(-0.000162027 -0.000253583 0.099897)
(-0.000179565 -0.000245257 0.0998034)
(-0.000194042 -0.000233182 0.0996055)
(-0.000202343 -0.000211729 0.0989727)
(-0.000174176 -0.000153733 0.0960229)
(-0.000139466 -8.76479e-05 0.0865363)
(0.000139487 -6.29897e-05 0.0839967)
(0.000151271 -0.000146849 0.0940479)
(0.000181433 -0.000219471 0.098279)
(0.00017514 -0.000243434 0.0993448)
(0.000160862 -0.000258121 0.0996641)
(0.000144031 -0.000268899 0.0998058)
(0.000127254 -0.000277776 0.0999049)
(0.000111359 -0.000285536 0.099986)
(9.6283e-05 -0.000292273 0.100052)
(8.16408e-05 -0.000297925 0.100102)
(6.70436e-05 -0.000302408 0.100139)
(5.22415e-05 -0.000305769 0.100166)
(3.71558e-05 -0.00030809 0.100184)
(2.1812e-05 -0.000309497 0.100197)
(6.30131e-06 -0.000310068 0.100204)
(-9.22083e-06 -0.000309875 0.100207)
(-2.46117e-05 -0.000308917 0.100205)
(-3.97385e-05 -0.000307177 0.100198)
(-5.4526e-05 -0.000304576 0.100183)
(-6.89631e-05 -0.000301044 0.100157)
(-8.31988e-05 -0.000296516 0.100117)
(-9.75118e-05 -0.000290981 0.100061)
(-0.000112337 -0.000284524 0.0999847)
(-0.000128128 -0.000277193 0.0998892)
(-0.000144941 -0.000268768 0.0997738)
(-0.000161976 -0.000258381 0.099617)
(-0.000176587 -0.000243684 0.099289)
(-0.000183393 -0.000219159 0.0982279)
(-0.000153982 -0.000145043 0.0940221)