/*--------------------------------*- C++ -*----------------------------------*\
| =========                 |                                                 |
| \\      /  F ield         | OpenFOAM: The Open Source CFD Toolbox           |
|  \\    /   O peration     | Version:  2312                                  |
|   \\  /    A nd           | Website:  www.openfoam.com                      |
|    \\/     M anipulation  |                                                 |
\*---------------------------------------------------------------------------*/
FoamFile
{
    version     2.0;
    format      ascii;
    arch        "LSB;label=32;scalar=64";
    class       volScalarField;
    location    "600";
    object      alphat;
}
// * * * * * * * * * * * * * * * * * * * * * * * * * * * * * * * * * * * * * //

dimensions      [1 -1 -1 0 0 0 0];

internalField   nonuniform List<scalar> 
27000
(
0.00394727
0.00669917
0.00935899
0.011742
0.0140581
0.0162189
0.0181795
0.0198347
0.0212576
0.0224732
0.023482
0.0242772
0.0248697
0.0252638
0.0254613
0.0254629
0.0252686
0.0248774
0.0242872
0.0234917
0.0224839
0.0212691
0.0198461
0.0181903
0.0162279
0.0140643
0.0117445
0.009358
0.00669637
0.00394524
0.00574674
0.00127802
0.00515702
0.00907537
0.0131544
0.0170302
0.0206893
0.024091
0.0271698
0.0299024
0.0322605
0.034227
0.0357504
0.0367868
0.0373091
0.0373045
0.0367737
0.035731
0.0342057
0.0322432
0.0298871
0.0271562
0.0240791
0.0206801
0.0170232
0.0131492
0.00907337
0.00515514
0.00127646
0.00574397
0.00922215
0.00711816
0.0145705
0.0262033
0.0369021
0.0462715
0.0548339
0.0628405
0.0701063
0.0764978
0.0819388
0.0863992
0.0898224
0.0921362
0.0932959
0.0932822
0.0920984
0.0897706
0.0863533
0.0819122
0.0764889
0.0701134
0.0628596
0.0548569
0.0462919
0.0369134
0.0262286
0.0145963
0.00710948
0.0092204
0.0121558
0.0108357
0.026188
0.0527992
0.0783065
0.0964086
0.109952
0.121031
0.130321
0.138
0.144274
0.149239
0.152949
0.155418
0.156646
0.156637
0.155394
0.152925
0.149232
0.144297
0.13805
0.130396
0.121116
0.110016
0.0964303
0.0783138
0.0528601
0.0262464
0.0108335
0.0121567
0.0149267
0.014476
0.0370344
0.0764493
0.113438
0.139236
0.156096
0.16797
0.176839
0.183238
0.188223
0.192046
0.194833
0.196659
0.197561
0.197559
0.196655
0.194836
0.192065
0.188258
0.183262
0.176883
0.168036
0.156141
0.139253
0.113466
0.0765436
0.0371014
0.0144753
0.0149308
0.0174921
0.0184157
0.0478758
0.0955649
0.138109
0.167491
0.185555
0.196922
0.204423
0.209474
0.213001
0.215511
0.217256
0.218367
0.218909
0.218908
0.218368
0.217264
0.215531
0.213035
0.209519
0.204481
0.196986
0.185619
0.167592
0.138206
0.0956886
0.0479437
0.0184143
0.0174987
0.0198277
0.0225517
0.0587095
0.111811
0.156052
0.185348
0.20301
0.213335
0.219456
0.223167
0.225482
0.226963
0.227913
0.228485
0.228755
0.228755
0.228486
0.227919
0.226981
0.225513
0.223213
0.219513
0.213399
0.203083
0.185444
0.156167
0.111928
0.0587505
0.0225454
0.0198359
0.0219171
0.026739
0.0692023
0.125818
0.170065
0.197539
0.213516
0.22238
0.227198
0.229802
0.231212
0.231983
0.232408
0.232634
0.232732
0.232732
0.232635
0.232414
0.232
0.231242
0.229844
0.227252
0.222442
0.213588
0.197622
0.170145
0.125895
0.0692148
0.0267266
0.0219275
0.0237298
0.0308571
0.079006
0.137793
0.181069
0.206186
0.220099
0.227395
0.231044
0.23278
0.233555
0.233869
0.233977
0.234003
0.234006
0.234006
0.234006
0.233984
0.233884
0.233581
0.232817
0.23109
0.227446
0.220154
0.206237
0.18109
0.13782
0.0789882
0.0308396
0.0237406
0.0252817
0.0347454
0.0879045
0.147835
0.188904
0.212181
0.224286
0.230205
0.232894
0.233983
0.23433
0.234368
0.234302
0.234227
0.234183
0.234184
0.23423
0.234309
0.234381
0.234352
0.234011
0.232927
0.230241
0.224321
0.212211
0.18892
0.147824
0.0878628
0.0347249
0.0252917
0.0265744
0.0382478
0.0956799
0.156242
0.195382
0.216569
0.22704
0.231814
0.233756
0.234383
0.234457
0.234339
0.234189
0.234071
0.234009
0.23401
0.234073
0.234194
0.234348
0.234471
0.2344
0.233775
0.231832
0.227054
0.216574
0.19537
0.156199
0.0956201
0.0382255
0.0265831
0.0276078
0.0412279
0.102117
0.162956
0.200422
0.219798
0.228898
0.232762
0.234147
0.234457
0.234362
0.234163
0.23398
0.233852
0.233788
0.233788
0.233853
0.233983
0.234168
0.234368
0.234463
0.234152
0.232762
0.228892
0.21978
0.200386
0.162892
0.102047
0.041205
0.0276154
0.0283822
0.0435705
0.107067
0.167994
0.204099
0.22207
0.230131
0.233326
0.23432
0.234423
0.23423
0.233994
0.233803
0.233678
0.233618
0.233618
0.233678
0.233803
0.233993
0.234228
0.234419
0.234313
0.233313
0.23011
0.222037
0.204047
0.167919
0.106992
0.0435477
0.0283889
0.0288982
0.0451846
0.110426
0.171389
0.206505
0.223518
0.230886
0.233647
0.234395
0.234373
0.234127
0.233877
0.233688
0.233571
0.233515
0.233515
0.233569
0.233686
0.233873
0.234121
0.234363
0.23438
0.233625
0.230856
0.223476
0.206448
0.171314
0.110351
0.0451624
0.0289042
0.0291559
0.0460075
0.112121
0.173086
0.207693
0.224221
0.231245
0.233792
0.234422
0.234342
0.234074
0.233819
0.233634
0.233521
0.233469
0.233468
0.233519
0.233631
0.233814
0.234066
0.234329
0.234404
0.233767
0.231212
0.224177
0.207635
0.173014
0.112048
0.045986
0.0291616
0.0291555
0.0460078
0.112122
0.173086
0.207692
0.22422
0.231244
0.233792
0.234422
0.234342
0.234074
0.23382
0.233635
0.233522
0.23347
0.233469
0.23352
0.233632
0.233815
0.234066
0.23433
0.234404
0.233768
0.231212
0.224177
0.207635
0.173016
0.11205
0.0459865
0.0291612
0.028897
0.0451854
0.110429
0.17139
0.206504
0.223515
0.230884
0.233645
0.234394
0.234373
0.234128
0.233877
0.233689
0.233572
0.233517
0.233517
0.233571
0.233688
0.233875
0.234123
0.234365
0.234381
0.233626
0.230857
0.223477
0.20645
0.171319
0.110358
0.0451637
0.028903
0.0283803
0.0435717
0.107072
0.167997
0.204097
0.222067
0.230128
0.233324
0.234319
0.234422
0.23423
0.233994
0.233804
0.233679
0.23362
0.23362
0.23368
0.233805
0.233996
0.234231
0.234421
0.234314
0.233313
0.230109
0.222037
0.20405
0.167927
0.107003
0.0435495
0.0283868
0.0276052
0.0412295
0.102125
0.162961
0.200422
0.219794
0.228894
0.232758
0.234145
0.234455
0.234361
0.234162
0.233979
0.233851
0.233788
0.233788
0.233854
0.233984
0.234169
0.234369
0.234463
0.234151
0.232761
0.22889
0.219779
0.20039
0.162903
0.102061
0.0412072
0.0276125
0.0265715
0.0382494
0.0956909
0.15625
0.195384
0.216566
0.227036
0.231809
0.233752
0.234379
0.234454
0.234335
0.234184
0.234067
0.234006
0.234007
0.234071
0.234192
0.234347
0.23447
0.234398
0.233771
0.231827
0.227049
0.216571
0.195374
0.156213
0.0956371
0.0382278
0.0265796
0.0252787
0.034747
0.0879189
0.147849
0.18891
0.21218
0.224282
0.2302
0.232888
0.233977
0.234323
0.234359
0.234293
0.234218
0.234174
0.234175
0.234223
0.234302
0.234375
0.234346
0.234005
0.23292
0.230233
0.224314
0.212207
0.188924
0.147839
0.087881
0.034727
0.0252875
0.0237268
0.0308584
0.0790232
0.137814
0.181076
0.206189
0.220098
0.227391
0.231038
0.232771
0.233543
0.233855
0.233962
0.233988
0.23399
0.233992
0.233993
0.233972
0.233874
0.233571
0.232808
0.231081
0.227438
0.220147
0.206235
0.181097
0.137836
0.0790054
0.0308408
0.023736
0.0219144
0.0267395
0.0692216
0.125847
0.170085
0.197552
0.213522
0.22238
0.227193
0.229791
0.231197
0.231965
0.232387
0.232612
0.232711
0.232713
0.232617
0.232399
0.231987
0.23123
0.229835
0.227244
0.222437
0.213586
0.197625
0.170156
0.125912
0.0692297
0.0267261
0.0219233
0.0198256
0.0225514
0.0587316
0.111851
0.156087
0.185373
0.203024
0.213342
0.219454
0.223157
0.225465
0.226943
0.22789
0.228461
0.228731
0.228733
0.228466
0.227903
0.226968
0.225504
0.223208
0.219513
0.213405
0.203095
0.185461
0.156189
0.111953
0.0587663
0.0225441
0.0198319
0.0174902
0.0184165
0.0479046
0.0956118
0.138153
0.167525
0.185582
0.196939
0.204426
0.209464
0.212987
0.215494
0.217236
0.218346
0.218887
0.218889
0.218353
0.217254
0.215526
0.213036
0.209524
0.204494
0.197009
0.185653
0.167628
0.138249
0.0957248
0.0479656
0.0184145
0.017495
0.0149249
0.0144754
0.0370591
0.0764958
0.113487
0.139281
0.156136
0.167993
0.176843
0.183219
0.18822
0.192041
0.194824
0.196647
0.19755
0.19755
0.196651
0.19484
0.192075
0.188275
0.183285
0.17691
0.168074
0.156201
0.139325
0.113538
0.0765922
0.0371214
0.0144742
0.0149275
0.0121541
0.0108339
0.026206
0.0528374
0.0783503
0.0964567
0.110003
0.121077
0.130357
0.138025
0.144292
0.149249
0.152952
0.155419
0.156649
0.156643
0.155406
0.152945
0.14926
0.144331
0.138091
0.130444
0.121175
0.110086
0.0965084
0.0783891
0.0529117
0.0262621
0.0108314
0.012154
0.00922079
0.00711597
0.0145754
0.026218
0.0369228
0.0462982
0.0548588
0.0628648
0.0701279
0.0765156
0.0819527
0.0864079
0.0898277
0.0921422
0.0933046
0.0932948
0.0921155
0.0897932
0.086382
0.0819425
0.0765205
0.0701464
0.0628948
0.0548942
0.0463337
0.0369499
0.0262517
0.0146001
0.00710838
0.00921872
0.00574568
0.00127758
0.00515544
0.00907392
0.0131535
0.01703
0.0206892
0.0240904
0.027169
0.0299014
0.0322597
0.0342267
0.0357507
0.0367879
0.0373112
0.0373076
0.0367778
0.0357358
0.0342105
0.0322463
0.0298898
0.0271585
0.0240815
0.0206831
0.0170258
0.0131502
0.00907233
0.0051529
0.00127608
0.00574297
0.00394667
0.00669817
0.00935796
0.0117412
0.0140574
0.0162183
0.0181789
0.0198339
0.0212567
0.022472
0.0234805
0.0242749
0.0248668
0.0252606
0.0254578
0.025459
0.0252644
0.0248729
0.0242828
0.023488
0.0224803
0.0212654
0.0198425
0.0181868
0.0162248
0.0140616
0.0117425
0.00935654
0.00669545
0.00394475
0.00357395
0.00610871
0.00870892
0.0110709
0.0134316
0.0156643
0.0177252
0.0195018
0.0210408
0.0223637
0.0234721
0.0243802
0.0250669
0.0255255
0.0257541
0.0257521
0.0255193
0.0250566
0.0243666
0.02346
0.0223494
0.0210237
0.0194768
0.0177007
0.0156443
0.0134189
0.0110675
0.008714
0.00611834
0.00358057
0.00514028
0.00163638
0.00750472
0.0111012
0.01469
0.0176944
0.0202485
0.0226286
0.0247213
0.0265233
0.0280353
0.0292336
0.0301283
0.0307273
0.0310301
0.0310353
0.0307419
0.0301495
0.029255
0.0280497
0.0265334
0.024731
0.0226433
0.0202764
0.017729
0.0147268
0.011136
0.00752973
0.00165029
0.00515121
0.0087062
0.0103572
0.0132319
0.0166532
0.0217987
0.0272163
0.0322334
0.0366387
0.0406846
0.0443392
0.0474876
0.050017
0.0518858
0.0531412
0.0537845
0.0538108
0.0532174
0.0519991
0.0501136
0.0475493
0.0443805
0.0407098
0.0366461
0.0322251
0.0271959
0.0217852
0.0166376
0.0132318
0.0104404
0.0087158
0.0115769
0.0135478
0.0178532
0.0255034
0.0355494
0.0461665
0.0556997
0.0640869
0.0715571
0.0783671
0.0841771
0.0888297
0.0922715
0.0945515
0.095714
0.0957773
0.0947342
0.0925487
0.0891543
0.0845083
0.0786631
0.0717567
0.064126
0.0556168
0.0460069
0.0353699
0.025416
0.0178295
0.0136151
0.0115785
0.0144173
0.0160037
0.02264
0.0355556
0.0537973
0.0728848
0.089078
0.101976
0.112502
0.121611
0.129009
0.134752
0.138838
0.141457
0.142756
0.142796
0.14157
0.139007
0.13497
0.129246
0.12181
0.11256
0.101835
0.0887357
0.0724511
0.0534871
0.0353656
0.0225726
0.0160598
0.0144096
0.017125
0.0181944
0.0284031
0.046699
0.0726029
0.0990159
0.121291
0.13758
0.149383
0.158451
0.165477
0.170772
0.174519
0.176901
0.178067
0.178089
0.176964
0.174607
0.170867
0.165547
0.158453
0.149283
0.137361
0.120897
0.0985414
0.0721945
0.0465173
0.0283238
0.0182352
0.0171109
0.0196373
0.0205451
0.0338252
0.0580905
0.0903594
0.121684
0.146263
0.163736
0.175871
0.184464
0.190676
0.195142
0.198224
0.200155
0.201089
0.201101
0.200185
0.19826
0.195166
0.190666
0.184405
0.175754
0.163556
0.146001
0.121328
0.0900838
0.0580063
0.0337863
0.0205496
0.0196248
0.0219346
0.0230283
0.0389785
0.0689439
0.10583
0.139376
0.164402
0.181822
0.193556
0.201432
0.206771
0.210396
0.212795
0.214259
0.214955
0.21496
0.21427
0.212803
0.210387
0.206734
0.201362
0.193454
0.181687
0.164231
0.139195
0.105751
0.0689928
0.0389655
0.0230333
0.0219197
0.0240376
0.0253477
0.0439106
0.0790417
0.119095
0.153051
0.177568
0.19419
0.205064
0.212058
0.216542
0.219411
0.221213
0.222269
0.222759
0.22276
0.22227
0.221206
0.219389
0.2165
0.211994
0.204981
0.194095
0.17747
0.152988
0.119158
0.079177
0.0439235
0.0253582
0.0240228
0.0258824
0.0274347
0.0483774
0.087773
0.130299
0.163751
0.18721
0.202686
0.212501
0.218567
0.222257
0.224477
0.225788
0.226518
0.226844
0.226843
0.226514
0.225776
0.224454
0.22222
0.218517
0.212444
0.202627
0.187162
0.163739
0.130366
0.0879328
0.0484121
0.0274506
0.02587
0.0274464
0.029254
0.0522619
0.0949393
0.138722
0.171819
0.194215
0.208527
0.217301
0.222501
0.2255
0.227188
0.228115
0.228596
0.2288
0.228799
0.228591
0.228105
0.227171
0.225475
0.222471
0.21727
0.208502
0.194206
0.171845
0.138811
0.0950949
0.0523131
0.0292745
0.0274363
0.0287144
0.0307676
0.0554975
0.100646
0.145106
0.177755
0.199207
0.212502
0.220377
0.224851
0.227291
0.228568
0.229208
0.229509
0.229626
0.229625
0.229506
0.229203
0.22856
0.22728
0.224841
0.220373
0.212509
0.199231
0.177809
0.145204
0.100778
0.0555565
0.0307909
0.0287062
0.0296747
0.0319396
0.0580073
0.104956
0.149765
0.181959
0.202636
0.215128
0.222304
0.226224
0.22825
0.229232
0.229672
0.22985
0.22991
0.22991
0.22985
0.229672
0.229233
0.228253
0.226233
0.222321
0.215157
0.202682
0.182028
0.14986
0.105058
0.0580659
0.0319638
0.029668
0.0303193
0.0327399
0.0597268
0.107891
0.152847
0.184669
0.20479
0.216727
0.223429
0.22698
0.228735
0.229527
0.229843
0.229946
0.229971
0.229972
0.229949
0.229847
0.229535
0.228748
0.227001
0.22346
0.21677
0.204848
0.184742
0.152934
0.107974
0.0597817
0.0327634
0.0303135
0.0306431
0.0331471
0.060602
0.10937
0.154383
0.186001
0.205832
0.217485
0.223948
0.227314
0.228935
0.229636
0.229892
0.22996
0.229969
0.22997
0.229964
0.229898
0.229647
0.228953
0.22734
0.223984
0.217533
0.205893
0.186074
0.154464
0.109441
0.0606514
0.0331682
0.0306378
0.0306435
0.0331466
0.0606019
0.10937
0.154385
0.186003
0.205834
0.217486
0.223948
0.227313
0.228934
0.229634
0.229889
0.229957
0.229966
0.229967
0.229961
0.229895
0.229645
0.228951
0.227338
0.223983
0.217532
0.205893
0.186074
0.154463
0.109439
0.0606493
0.0331668
0.0306381
0.0303206
0.0327379
0.0597259
0.107891
0.152852
0.184675
0.204795
0.216729
0.223429
0.226977
0.228731
0.229522
0.229836
0.229939
0.229964
0.229964
0.229941
0.229839
0.229528
0.228741
0.226995
0.223456
0.216768
0.204847
0.184742
0.152932
0.107969
0.0597757
0.0327595
0.0303147
0.0296767
0.0319361
0.0580054
0.104956
0.149773
0.181969
0.202644
0.215132
0.222304
0.226221
0.228244
0.229224
0.229663
0.229841
0.2299
0.229899
0.229839
0.229661
0.229222
0.228244
0.226226
0.222317
0.215156
0.202683
0.182028
0.149857
0.105049
0.0580566
0.0319577
0.0296699
0.028717
0.0307628
0.0554937
0.100646
0.145115
0.177767
0.199217
0.212508
0.220378
0.224848
0.227285
0.228561
0.2292
0.2295
0.229616
0.229615
0.229495
0.229192
0.22855
0.227272
0.224836
0.220372
0.212511
0.199236
0.177812
0.1452
0.100764
0.0555443
0.030783
0.028709
0.0274495
0.029248
0.0522538
0.0949398
0.138731
0.171831
0.194225
0.208534
0.217303
0.222501
0.225497
0.227185
0.228111
0.228592
0.228795
0.228792
0.228584
0.228098
0.227165
0.225471
0.222471
0.217275
0.208511
0.194216
0.171851
0.138806
0.0950746
0.052298
0.0292653
0.02744
0.0258857
0.027428
0.0483657
0.087774
0.130306
0.16376
0.18722
0.202694
0.212507
0.218571
0.22226
0.224481
0.225793
0.226523
0.226848
0.226846
0.226515
0.225778
0.224456
0.222224
0.218526
0.212456
0.202643
0.187178
0.163747
0.130358
0.0879066
0.0483937
0.0274409
0.0258746
0.0240408
0.0253406
0.0438959
0.0790424
0.119099
0.153055
0.177575
0.194199
0.205073
0.212069
0.216555
0.219426
0.22123
0.222287
0.222776
0.222775
0.222283
0.221218
0.219402
0.216514
0.212012
0.205003
0.194119
0.177492
0.152998
0.11914
0.079149
0.0439058
0.0253493
0.0240282
0.0219377
0.0230223
0.0389624
0.068941
0.105823
0.139371
0.164404
0.181831
0.193569
0.201451
0.206795
0.210426
0.212829
0.214293
0.214988
0.21499
0.214297
0.212828
0.210411
0.206758
0.201388
0.193482
0.181718
0.16426
0.139213
0.105742
0.0689719
0.0389501
0.0230269
0.0219244
0.0196393
0.0205427
0.0338071
0.0580764
0.0903404
0.121663
0.146259
0.163744
0.175889
0.184494
0.190715
0.195189
0.198275
0.200207
0.201139
0.201146
0.200226
0.198296
0.195199
0.190697
0.184435
0.175786
0.16359
0.146035
0.121354
0.0900945
0.0579958
0.033771
0.0205473
0.0196296
0.0171284
0.0182113
0.0283724
0.0466798
0.0725826
0.0989968
0.121281
0.137589
0.14941
0.1585
0.165538
0.17084
0.174588
0.17697
0.178132
0.178148
0.177015
0.174651
0.170904
0.165579
0.158484
0.149314
0.137397
0.120941
0.0985906
0.0722313
0.0465187
0.0282987
0.0182523
0.0171185
0.0144212
0.0160204
0.0226198
0.0355464
0.0537896
0.0728829
0.0890915
0.102006
0.112562
0.121706
0.129098
0.134846
0.138929
0.141545
0.142838
0.142869
0.141632
0.139056
0.135007
0.129272
0.121833
0.11259
0.101872
0.088794
0.0725134
0.0535241
0.0353831
0.0225576
0.0160735
0.014417
0.0115811
0.0135651
0.0178592
0.0254979
0.03555
0.0461725
0.0557143
0.0641175
0.0716179
0.0784479
0.0842683
0.0889336
0.092383
0.0946596
0.0958129
0.0958644
0.0948069
0.0926017
0.0891846
0.0845291
0.0786804
0.0717732
0.0641406
0.0556357
0.0460314
0.0353955
0.0254171
0.0178416
0.0136266
0.0115847
0.00871009
0.0103721
0.0132368
0.0166468
0.0217867
0.0271978
0.0322245
0.0366309
0.0406798
0.044339
0.0474953
0.0500489
0.0519362
0.053192
0.0538319
0.0538536
0.053254
0.0520215
0.0501041
0.0475341
0.0443649
0.040694
0.0366299
0.0322091
0.0271694
0.0217656
0.0166279
0.0132375
0.010443
0.00871956
0.00514336
0.00163861
0.00751154
0.0111104
0.0147028
0.017709
0.0202613
0.0226251
0.0247149
0.0265159
0.0280272
0.0292251
0.0301191
0.0307167
0.0310179
0.0310216
0.030727
0.0301338
0.0292389
0.0280356
0.0265207
0.0247198
0.0226352
0.0202899
0.0177442
0.0147387
0.0111425
0.00753385
0.00165035
0.00515346
0.00357568
0.00611143
0.00871166
0.0110732
0.0134334
0.0156657
0.0177263
0.0195026
0.0210417
0.0223649
0.0234739
0.0243833
0.0250706
0.0255297
0.0257588
0.0257572
0.0255248
0.0250625
0.0243726
0.0234644
0.0223539
0.0210287
0.0194839
0.0177085
0.0156518
0.0134254
0.0110724
0.00871736
0.00612025
0.00358169
0.00335266
0.00570343
0.00822812
0.0105619
0.0129092
0.0151281
0.0171633
0.0189045
0.0204296
0.0217515
0.0228614
0.0237458
0.0244113
0.0248572
0.0250821
0.025085
0.0248659
0.0244255
0.0237649
0.0228823
0.0217755
0.0204561
0.018938
0.0171944
0.0151522
0.0129234
0.0105651
0.00822192
0.00569068
0.00334314
0.00485855
0.00246843
0.010656
0.0158937
0.0209499
0.0254702
0.0293584
0.0323883
0.034694
0.0364189
0.0377104
0.038677
0.0393747
0.0398303
0.0400574
0.0400612
0.0398418
0.0393936
0.0387036
0.037744
0.0364553
0.0347284
0.0324134
0.0293544
0.0254366
0.0208968
0.0158378
0.0106152
0.00241749
0.00484202
0.00826741
0.0128719
0.0172755
0.0211133
0.0241016
0.027168
0.0302109
0.033214
0.0360544
0.0384976
0.0405477
0.0422141
0.0434946
0.0443568
0.044792
0.0447971
0.0443746
0.0435323
0.042296
0.0406778
0.0386616
0.0362295
0.0333661
0.0302573
0.0271835
0.0241256
0.0211423
0.0172653
0.012725
0.00825165
0.0110518
0.0180375
0.0232332
0.0249441
0.0287787
0.0346983
0.0415044
0.0478492
0.0532911
0.0576679
0.0613779
0.064445
0.0668277
0.0684439
0.06924
0.0691953
0.0683147
0.0666307
0.0642124
0.0611358
0.0574587
0.053167
0.0478694
0.0414816
0.0345695
0.028844
0.0250025
0.023201
0.0179197
0.0110449
0.0138002
0.0220191
0.0263646
0.0295848
0.0382348
0.0507597
0.0626145
0.0722268
0.080032
0.0864748
0.0917604
0.0960359
0.0995527
0.102034
0.103272
0.103208
0.101855
0.0992957
0.0957515
0.0914459
0.0862598
0.0799853
0.0723468
0.0627358
0.0506414
0.0379875
0.0296244
0.0263473
0.0219258
0.0138061
0.0164344
0.0255159
0.0286327
0.0360207
0.0511622
0.0694901
0.087255
0.101896
0.113568
0.122562
0.129487
0.134788
0.13876
0.14143
0.142745
0.142683
0.141257
0.138517
0.134533
0.129281
0.122494
0.113679
0.102176
0.0877043
0.0695546
0.0511508
0.0360471
0.0286416
0.0254641
0.0164508
0.0189097
0.0282497
0.0311616
0.0437525
0.0636392
0.0874964
0.110841
0.129406
0.143031
0.152983
0.160268
0.165576
0.169333
0.171754
0.172929
0.172902
0.17168
0.169244
0.16551
0.160264
0.153071
0.143204
0.12966
0.111214
0.0879
0.0638319
0.0438008
0.031293
0.0282552
0.0189273
0.0211892
0.030364
0.034436
0.0509334
0.0749454
0.103864
0.130352
0.150414
0.164821
0.175011
0.182175
0.187166
0.190542
0.19264
0.193642
0.193633
0.192619
0.190528
0.18718
0.182235
0.175123
0.164977
0.150618
0.130592
0.104071
0.0749912
0.0508811
0.034582
0.030374
0.0212089
0.023221
0.0320418
0.0377977
0.0571887
0.0848286
0.117899
0.145504
0.165874
0.180257
0.190199
0.196976
0.201524
0.204482
0.206259
0.207091
0.20709
0.20626
0.204497
0.201562
0.197044
0.190297
0.180378
0.166011
0.145633
0.117924
0.0847051
0.0570675
0.0379199
0.0320521
0.0232406
0.0250075
0.0334099
0.0410727
0.0631671
0.0947827
0.129646
0.157197
0.177167
0.19105
0.200459
0.206706
0.210763
0.213309
0.214789
0.215467
0.215469
0.214797
0.213329
0.2108
0.206761
0.200529
0.191129
0.177245
0.157248
0.129618
0.0946114
0.0630205
0.0411488
0.0334192
0.0250251
0.0265305
0.0345287
0.0440456
0.0684921
0.103424
0.13883
0.166019
0.185324
0.198517
0.207283
0.212961
0.216538
0.218706
0.219925
0.220471
0.220473
0.219932
0.218721
0.216562
0.212994
0.207322
0.198553
0.185348
0.166009
0.138748
0.103235
0.0683542
0.0440711
0.0345366
0.0265457
0.0277722
0.035429
0.0465122
0.0729077
0.110354
0.145834
0.172497
0.1911
0.203595
0.211737
0.216886
0.220036
0.221884
0.222888
0.223326
0.223327
0.222891
0.22189
0.220046
0.216897
0.211745
0.203593
0.191077
0.172439
0.145721
0.110179
0.0728015
0.0465096
0.0354359
0.0277854
0.0287174
0.0361197
0.0484388
0.0762712
0.115513
0.150905
0.177051
0.195034
0.206933
0.21455
0.219265
0.222074
0.223672
0.224512
0.224869
0.224869
0.224511
0.22367
0.22207
0.219256
0.214533
0.2069
0.19498
0.176966
0.150783
0.115368
0.0762057
0.0484337
0.0361246
0.0287288
0.0293542
0.0365935
0.0497699
0.0784974
0.118912
0.154202
0.179956
0.197485
0.208953
0.216196
0.220605
0.223179
0.224606
0.225337
0.22564
0.225639
0.225333
0.224598
0.223166
0.220584
0.216163
0.208903
0.197414
0.179861
0.154085
0.118796
0.0784572
0.0497639
0.0365929
0.0293642
0.0296746
0.0368466
0.0504515
0.0796185
0.1206
0.155827
0.181373
0.198664
0.209907
0.216956
0.221208
0.223662
0.225003
0.225679
0.225955
0.225953
0.225674
0.224992
0.223644
0.221181
0.216916
0.20985
0.198587
0.181277
0.155717
0.1205
0.07959
0.050444
0.0368298
0.0296835
0.029674
0.0368477
0.050452
0.0796202
0.120603
0.155829
0.181375
0.198666
0.20991
0.21696
0.221212
0.223665
0.225006
0.225683
0.225959
0.225957
0.225678
0.224997
0.223649
0.221186
0.216922
0.209856
0.198593
0.181282
0.155722
0.120505
0.0795908
0.0504444
0.0368294
0.0296829
0.0293525
0.0365928
0.0497708
0.078502
0.118919
0.154207
0.179961
0.197492
0.208961
0.216206
0.220615
0.223189
0.224616
0.225347
0.22565
0.225649
0.225345
0.224611
0.22318
0.220599
0.216179
0.208919
0.19743
0.179876
0.1541
0.11881
0.0784606
0.0497652
0.0365917
0.0293623
0.0287146
0.0361181
0.0484407
0.0762779
0.115523
0.150913
0.17706
0.195046
0.206947
0.214566
0.219281
0.22209
0.223686
0.224527
0.224884
0.224885
0.224529
0.223689
0.222092
0.21928
0.214557
0.206926
0.195005
0.176991
0.150809
0.115394
0.0762139
0.0484362
0.0361222
0.0287257
0.0277686
0.035427
0.0465171
0.0729169
0.110368
0.145848
0.172513
0.191119
0.203616
0.211759
0.216907
0.220056
0.221902
0.222905
0.223343
0.223346
0.222913
0.221914
0.220073
0.216926
0.211776
0.203625
0.19111
0.172473
0.145756
0.110218
0.0728178
0.0465144
0.0354324
0.0277809
0.0265264
0.0345271
0.0440697
0.0685071
0.103444
0.138852
0.166044
0.185352
0.198545
0.20731
0.212985
0.216559
0.218725
0.219942
0.220488
0.220492
0.219955
0.218747
0.216592
0.213027
0.207356
0.19859
0.185387
0.166049
0.138793
0.103289
0.0683844
0.0440819
0.0345327
0.0265399
0.0250032
0.033409
0.0411086
0.0631822
0.094807
0.12968
0.157236
0.177205
0.191085
0.20049
0.206732
0.210785
0.213326
0.214803
0.215481
0.215486
0.214818
0.213355
0.21083
0.206794
0.200565
0.191169
0.177288
0.157298
0.129672
0.0946744
0.063065
0.0411814
0.0334158
0.0250181
0.0232169
0.0320426
0.0378429
0.0572023
0.0848617
0.117952
0.145559
0.165922
0.180299
0.190233
0.197002
0.201542
0.204494
0.206267
0.207099
0.207102
0.206278
0.20452
0.201591
0.197077
0.190333
0.180419
0.166059
0.145692
0.117999
0.0847735
0.0571106
0.0379532
0.0320488
0.0232327
0.0211854
0.0303653
0.0344847
0.0509453
0.0749814
0.103935
0.130422
0.150474
0.164867
0.175046
0.182197
0.187177
0.190546
0.192641
0.193644
0.193641
0.192635
0.190551
0.187209
0.18227
0.175161
0.165021
0.150671
0.130654
0.104144
0.0750445
0.0509138
0.0346131
0.0303704
0.021201
0.0189067
0.0282504
0.031205
0.0437692
0.0636783
0.0875904
0.110933
0.129471
0.143078
0.153013
0.16028
0.165574
0.169325
0.171747
0.172928
0.17291
0.171699
0.169272
0.165545
0.160305
0.153115
0.143253
0.129716
0.111288
0.0879716
0.0638658
0.0438158
0.0313204
0.0282519
0.0189192
0.0164299
0.0254979
0.028644
0.0360395
0.0511699
0.069539
0.08734
0.101956
0.1136
0.122566
0.12947
0.134761
0.138737
0.141417
0.142745
0.1427
0.14129
0.13856
0.134581
0.129333
0.122545
0.113731
0.102231
0.0877591
0.0696102
0.0511826
0.0360685
0.0286517
0.0254465
0.0164403
0.0137949
0.0219968
0.026365
0.0295877
0.0382154
0.0507478
0.0626373
0.0722455
0.0800249
0.0864453
0.0917138
0.0959871
0.0995195
0.102014
0.103266
0.103218
0.101877
0.0993232
0.095775
0.0914768
0.0862887
0.0800108
0.0723732
0.0627713
0.0506784
0.0380297
0.0296163
0.0263465
0.0219109
0.0137963
0.0110458
0.0180124
0.0232195
0.0249526
0.0287899
0.0347028
0.0415277
0.0478634
0.0532745
0.0576368
0.0613417
0.0644094
0.0667969
0.0684219
0.0692279
0.0691926
0.06832
0.0666428
0.0642295
0.0611537
0.0574742
0.0531787
0.0478852
0.0415198
0.0346097
0.0288407
0.024994
0.0231837
0.0179079
0.0110372
0.00826152
0.0128443
0.0172695
0.0211227
0.0241145
0.0271838
0.0302305
0.0332669
0.0361135
0.0385554
0.0406014
0.0422568
0.0435288
0.0443903
0.0448262
0.0448324
0.0444106
0.0435701
0.0423423
0.0407208
0.0387004
0.0362657
0.0333992
0.0302695
0.0271968
0.0241317
0.021142
0.0172548
0.0127202
0.00824657
0.00485424
0.00246066
0.0106502
0.0158846
0.020938
0.0254591
0.0293533
0.0323991
0.0347068
0.036432
0.0377238
0.0386904
0.0393877
0.0398429
0.0400693
0.0400724
0.039852
0.0394025
0.0387111
0.0377495
0.0364595
0.0347319
0.0324157
0.0293403
0.0254214
0.0208863
0.0158327
0.0106123
0.00241814
0.00483944
0.00335024
0.00569969
0.00822461
0.0105589
0.0129069
0.0151266
0.0171624
0.0189039
0.0204288
0.0217502
0.0228595
0.0237427
0.0244073
0.0248524
0.0250766
0.0250788
0.024859
0.024418
0.023757
0.0228748
0.0217676
0.0204478
0.0189276
0.0171836
0.0151419
0.0129144
0.0105579
0.00821685
0.0056877
0.00334167
0.00335151
0.00568137
0.00815452
0.0104572
0.0127485
0.0149098
0.0168972
0.0186065
0.0200986
0.0213901
0.0224744
0.0233457
0.0240011
0.024438
0.024655
0.0246512
0.0244269
0.0239829
0.0233213
0.0224448
0.0213574
0.0200651
0.0185756
0.0168716
0.014891
0.0127401
0.0104593
0.00816201
0.00569744
0.00336371
0.00488315
0.00315644
0.0120157
0.0184789
0.0246061
0.0300686
0.0348155
0.0387476
0.0419268
0.0444869
0.0465085
0.0480606
0.0491872
0.0499186
0.0502736
0.050262
0.0498853
0.0491368
0.0480012
0.0464542
0.0444512
0.0419165
0.0387799
0.0348804
0.030145
0.0246663
0.0184983
0.0120031
0.00324687
0.00490309
0.0082218
0.0143778
0.0195138
0.0250432
0.0299888
0.0346972
0.0389911
0.0426143
0.0453647
0.0474382
0.0489843
0.0501311
0.0509472
0.0514738
0.0517331
0.0517345
0.0514784
0.0509581
0.0501586
0.049057
0.0475532
0.0454961
0.0427345
0.0390958
0.034699
0.0298627
0.0248557
0.0194137
0.0144364
0.00823303
0.0109724
0.0207281
0.0275234
0.0306759
0.0336562
0.0369593
0.0400867
0.0432942
0.0465068
0.0496635
0.0526281
0.0553735
0.0575989
0.0591486
0.0599253
0.0598796
0.0590091
0.0573642
0.0550714
0.0525238
0.0497007
0.0465797
0.0433343
0.0401155
0.0369645
0.0334659
0.0304607
0.0274917
0.0208438
0.0109826
0.0136361
0.0259656
0.032796
0.0353004
0.0378381
0.0439442
0.0512263
0.0583785
0.0647893
0.0705282
0.0758532
0.0803616
0.0836802
0.0858647
0.0869746
0.087005
0.0859371
0.0837145
0.0800973
0.0752968
0.0699393
0.0644064
0.0583215
0.0512851
0.0441468
0.0382701
0.0352758
0.0328848
0.0260905
0.0136353
0.0161906
0.0306463
0.0367346
0.0385565
0.0437138
0.0553612
0.0676141
0.0788748
0.0884723
0.0965521
0.103479
0.109153
0.113374
0.116166
0.117601
0.117702
0.116441
0.113718
0.109397
0.103531
0.096406
0.08825
0.0786164
0.0673031
0.0555734
0.0442064
0.0386615
0.0369059
0.0307857
0.0161786
0.018581
0.0346136
0.0395952
0.0412884
0.0516237
0.0679277
0.0845381
0.100539
0.114697
0.125931
0.134639
0.141081
0.14566
0.148628
0.150111
0.150153
0.148736
0.145775
0.141127
0.134594
0.125726
0.11438
0.10023
0.0841241
0.0677578
0.0517351
0.0413927
0.0397267
0.0347187
0.0185602
0.0207832
0.0379916
0.0414639
0.0446595
0.0605953
0.0806277
0.101704
0.122198
0.138667
0.15074
0.159601
0.166001
0.170449
0.173275
0.174658
0.174672
0.173308
0.170474
0.165983
0.15952
0.150581
0.138434
0.121789
0.101281
0.0804089
0.0603921
0.0447338
0.0415721
0.0380351
0.0207575
0.0227715
0.0409014
0.0429926
0.048875
0.0696978
0.0925653
0.117888
0.140065
0.156874
0.169066
0.177779
0.183915
0.188087
0.190687
0.191939
0.191941
0.19069
0.188079
0.183881
0.177711
0.168961
0.156726
0.13985
0.117637
0.0924514
0.0695073
0.0488156
0.0430571
0.0409033
0.0227448
0.0245206
0.0433255
0.0443891
0.0536986
0.0772129
0.103335
0.131351
0.153646
0.170239
0.182129
0.190493
0.19627
0.200119
0.202476
0.203594
0.203593
0.202471
0.200105
0.19624
0.190446
0.182066
0.17016
0.153552
0.131281
0.103356
0.0772451
0.0534411
0.0444114
0.0433021
0.0244952
0.0260095
0.0452845
0.0456346
0.0583939
0.0837582
0.113008
0.14167
0.163783
0.179899
0.191304
0.199219
0.204596
0.208115
0.210233
0.211226
0.211225
0.210228
0.208105
0.204578
0.199195
0.191277
0.179875
0.163773
0.141712
0.113144
0.0838478
0.0581998
0.0456512
0.0452484
0.0259863
0.0272216
0.0468115
0.0467387
0.062421
0.0890773
0.120687
0.149447
0.171168
0.186744
0.19763
0.205086
0.210073
0.213282
0.215182
0.216064
0.216063
0.215181
0.213278
0.210069
0.205084
0.197635
0.186765
0.171221
0.14956
0.120882
0.0892242
0.0624015
0.0467514
0.046768
0.0272004
0.0281433
0.047935
0.0476337
0.0653005
0.0929561
0.126237
0.154964
0.176295
0.191395
0.201829
0.208886
0.213539
0.216487
0.218207
0.218998
0.218998
0.21821
0.216491
0.213547
0.208902
0.201859
0.191449
0.176386
0.15511
0.126441
0.0931046
0.0653199
0.0476379
0.0478894
0.0281238
0.0287643
0.0486778
0.0483477
0.0672423
0.0954832