/*--------------------------------*- C++ -*----------------------------------*\
| =========                 |                                                 |
| \\      /  F ield         | OpenFOAM: The Open Source CFD Toolbox           |
|  \\    /   O peration     | Version:  2312                                  |
|   \\  /    A nd           | Website:  www.openfoam.com                      |
|    \\/     M anipulation  |                                                 |
\*---------------------------------------------------------------------------*/
FoamFile
{
    version     2.0;
    format      ascii;
    arch        "LSB;label=32;scalar=64";
    class       volScalarField;
    location    "600";
    object      epsilon;
}
// * * * * * * * * * * * * * * * * * * * * * * * * * * * * * * * * * * * * * //

dimensions      [0 2 -3 0 0 0 0];

internalField   nonuniform List<scalar> 
27000
(
0.00152401
0.000224303
0.00011077
7.01027e-05
5.20693e-05
4.17936e-05
3.50868e-05
3.04404e-05
2.70989e-05
2.46527e-05
2.28511e-05
2.15178e-05
2.05844e-05
1.99937e-05
1.97089e-05
1.97125e-05
2.00045e-05
2.06027e-05
2.15433e-05
2.28783e-05
2.46865e-05
2.71408e-05
3.04912e-05
3.51464e-05
4.18602e-05
5.21352e-05
7.01466e-05
0.000110736
0.000224034
0.00152175
0.000150737
3.24869e-05
1.39002e-05
9.30928e-06
7.18894e-06
5.96107e-06
5.126e-06
4.51624e-06
4.06003e-06
3.71907e-06
3.46596e-06
3.27867e-06
3.14637e-06
3.06214e-06
3.02139e-06
3.02183e-06
3.06345e-06
3.14837e-06
3.28095e-06
3.46781e-06
3.72073e-06
4.06141e-06
4.51728e-06
5.12669e-06
5.96163e-06
7.18884e-06
9.30468e-06
1.38775e-05
3.24155e-05
0.000150526
0.000100139
1.53172e-05
5.12906e-06
2.56333e-06
1.91383e-06
1.62571e-06
1.44484e-06
1.31515e-06
1.21752e-06
1.14341e-06
1.08762e-06
1.04611e-06
1.01649e-06
9.9741e-07
9.88039e-07
9.87947e-07
9.97109e-07
1.01589e-06
1.04506e-06
1.08597e-06
1.14124e-06
1.21495e-06
1.31256e-06
1.44295e-06
1.62555e-06
1.91602e-06
2.56628e-06
5.12014e-06
1.52718e-05
0.000100085
6.6686e-05
1.02878e-05
2.83978e-06
1.3911e-06
9.95483e-07
8.53361e-07
7.79812e-07
7.31295e-07
6.95965e-07
6.69548e-07
6.49548e-07
6.3465e-07
6.24e-07
6.17097e-07
6.13651e-07
6.13519e-07
6.16695e-07
6.23307e-07
6.33651e-07
6.48279e-07
6.68152e-07
6.94659e-07
7.30448e-07
7.79961e-07
8.55043e-07
9.98768e-07
1.39453e-06
2.8373e-06
1.02695e-05
6.67002e-05
4.92657e-05
7.26603e-06
2.04725e-06
1.04017e-06
7.49447e-07
6.41001e-07
5.9151e-07
5.63153e-07
5.4441e-07
5.32203e-07
5.23053e-07
5.16227e-07
5.11351e-07
5.08181e-07
5.06573e-07
5.0646e-07
5.07846e-07
5.10813e-07
5.15537e-07
5.22316e-07
5.31638e-07
5.44108e-07
5.63297e-07
5.92393e-07
6.4273e-07
7.51753e-07
1.04183e-06
2.04535e-06
7.25923e-06
4.93046e-05
3.86787e-05
5.61846e-06
1.63e-06
8.76338e-07
6.49719e-07
5.60985e-07
5.21828e-07
5.01561e-07
4.89614e-07
4.82111e-07
4.77039e-07
4.73468e-07
4.70986e-07
4.69388e-07
4.68569e-07
4.68487e-07
4.69152e-07
4.70628e-07
4.73048e-07
4.76653e-07
4.81884e-07
4.89655e-07
5.01982e-07
5.22664e-07
5.62028e-07
6.50837e-07
8.76594e-07
1.62796e-06
5.61604e-06
3.87203e-05
3.16763e-05
4.59956e-06
1.38726e-06
7.80348e-07
5.96185e-07
5.23686e-07
4.91182e-07
4.75324e-07
4.66848e-07
4.61941e-07
4.58892e-07
4.56894e-07
4.55566e-07
4.54729e-07
4.54299e-07
4.54246e-07
4.54579e-07
4.5535e-07
4.56665e-07
4.58724e-07
4.61913e-07
4.67026e-07
4.75741e-07
4.91782e-07
5.24294e-07
5.96517e-07
7.79824e-07
1.38521e-06
4.59906e-06
3.17138e-05
2.6797e-05
3.91322e-06
1.22843e-06
7.17969e-07
5.61974e-07
5.02185e-07
4.756e-07
4.63078e-07
4.56856e-07
4.53557e-07
4.51675e-07
4.50525e-07
4.49798e-07
4.4935e-07
4.4912e-07
4.49088e-07
4.49263e-07
4.4968e-07
4.50416e-07
4.51622e-07
4.53607e-07
4.57036e-07
4.63374e-07
4.75933e-07
5.02411e-07
5.61908e-07
7.17224e-07
1.22691e-06
3.91458e-06
2.68341e-05
2.32271e-05
3.4203e-06
1.11456e-06
6.74137e-07
5.3876e-07
4.88515e-07
4.66708e-07
4.56842e-07
4.52252e-07
4.50024e-07
4.48862e-07
4.48201e-07
4.47799e-07
4.47555e-07
4.4743e-07
4.47412e-07
4.47508e-07
4.4774e-07
4.48155e-07
4.48857e-07
4.50081e-07
4.52374e-07
4.56997e-07
4.66829e-07
4.8851e-07
5.38572e-07
6.7349e-07
1.11371e-06
3.42268e-06
2.32573e-05
2.06218e-05
3.0597e-06
1.02987e-06
6.42187e-07
5.24484e-07
4.79889e-07
4.61378e-07
4.53441e-07
4.5001e-07
4.48496e-07
4.47786e-07
4.47412e-07
4.47192e-07
4.47058e-07
4.46988e-07
4.46979e-07
4.47033e-07
4.47163e-07
4.47393e-07
4.47791e-07
4.48531e-07
4.50064e-07
4.53484e-07
4.6136e-07
4.79753e-07
5.24182e-07
6.41722e-07
1.02958e-06
3.06239e-06
2.06447e-05
1.87193e-05
2.79577e-06
9.66599e-07
6.17948e-07
5.1312e-07
4.73862e-07
4.57974e-07
4.51467e-07
4.48845e-07
4.478e-07
4.47368e-07
4.47164e-07
4.47047e-07
4.46974e-07
4.46934e-07
4.46929e-07
4.4696e-07
4.47031e-07
4.47152e-07
4.47366e-07
4.47806e-07
4.48846e-07
4.51441e-07
4.57889e-07
4.73694e-07
5.12869e-07
6.17697e-07
9.66697e-07
2.79847e-06
1.87366e-05
1.73486e-05
2.60517e-06
9.20202e-07
6.00001e-07
5.04626e-07
4.69533e-07
4.55701e-07
4.50259e-07
4.482e-07
4.47459e-07
4.47195e-07
4.47088e-07
4.4703e-07
4.46991e-07
4.46969e-07
4.46966e-07
4.46982e-07
4.47018e-07
4.47076e-07
4.47183e-07
4.47443e-07
4.48171e-07
4.50202e-07
4.55602e-07
4.69391e-07
5.04466e-07
5.99924e-07
9.20548e-07
2.60776e-06
1.7362e-05
1.63992e-05
2.47287e-06
8.87604e-07
5.87235e-07
4.98619e-07
4.66539e-07
4.54199e-07
4.49513e-07
4.47832e-07
4.47281e-07
4.47115e-07
4.47063e-07
4.47038e-07
4.4702e-07
4.47008e-07
4.47005e-07
4.47012e-07
4.47027e-07
4.47048e-07
4.47095e-07
4.47252e-07
4.47789e-07
4.49448e-07
4.54111e-07
4.66437e-07
4.9854e-07
5.87279e-07
8.88088e-07
2.4753e-06
1.64099e-05
1.58007e-05
2.3893e-06
8.6682e-07
5.78911e-07
4.94762e-07
4.64654e-07
4.53283e-07
4.49078e-07
4.4763e-07
4.47189e-07
4.47078e-07
4.47055e-07
4.47047e-07
4.47039e-07
4.47033e-07
4.47031e-07
4.47032e-07
4.47035e-07
4.47038e-07
4.47054e-07
4.47155e-07
4.47583e-07
4.49016e-07
4.53211e-07
4.64585e-07
4.94734e-07
5.79009e-07
8.67365e-07
2.3916e-06
1.58097e-05
1.55109e-05
2.3488e-06
8.56701e-07
5.74837e-07
4.92881e-07
4.63745e-07
4.52851e-07
4.48879e-07
4.47542e-07
4.47151e-07
4.47063e-07
4.47053e-07
4.47052e-07
4.4705e-07
4.47046e-07
4.47044e-07
4.47043e-07
4.47041e-07
4.47035e-07
4.47039e-07
4.47117e-07
4.47496e-07
4.48822e-07
4.52789e-07
4.63694e-07
4.92875e-07
5.74954e-07
8.57259e-07
2.35101e-06
1.55192e-05
1.55103e-05
2.34871e-06
8.56684e-07
5.74834e-07
4.92882e-07
4.63748e-07
4.52855e-07
4.48883e-07
4.47545e-07
4.47155e-07
4.47067e-07
4.47055e-07
4.47055e-07
4.47052e-07
4.47049e-07
4.47047e-07
4.47046e-07
4.47045e-07
4.4704e-07
4.47044e-07
4.47123e-07
4.47502e-07
4.48829e-07
4.52795e-07
4.63699e-07
4.92877e-07
5.74947e-07
8.57226e-07
2.35088e-06
1.55186e-05
1.57988e-05
2.38902e-06
8.66766e-07
5.78901e-07
4.94766e-07
4.64663e-07
4.53295e-07
4.49089e-07
4.47641e-07
4.47199e-07
4.47086e-07
4.47062e-07
4.47054e-07
4.47046e-07
4.4704e-07
4.47039e-07
4.47042e-07
4.47046e-07
4.4705e-07
4.47068e-07
4.47172e-07
4.47602e-07
4.49036e-07
4.5323e-07
4.646e-07
4.94738e-07
5.78988e-07
8.67264e-07
2.39121e-06
1.58079e-05
1.63961e-05
2.47238e-06
8.87504e-07
5.87212e-07
4.98622e-07
4.66552e-07
4.54216e-07
4.49531e-07
4.47849e-07
4.47296e-07
4.47128e-07
4.47075e-07
4.47049e-07
4.4703e-07
4.47019e-07
4.47017e-07
4.47026e-07
4.47044e-07
4.47068e-07
4.47119e-07
4.47279e-07
4.47819e-07
4.4948e-07
4.54143e-07
4.66463e-07
4.98548e-07
5.87246e-07
8.87922e-07
2.47464e-06
1.64067e-05
1.73442e-05
2.60445e-06
9.20037e-07
5.99955e-07
5.04621e-07
4.69546e-07
4.55721e-07
4.50281e-07
4.48221e-07
4.47477e-07
4.4721e-07
4.47101e-07
4.47041e-07
4.47002e-07
4.46982e-07
4.4698e-07
4.47e-07
4.47039e-07
4.47101e-07
4.47212e-07
4.47477e-07
4.48209e-07
4.50245e-07
4.55645e-07
4.69427e-07
5.0448e-07
5.99877e-07
9.20313e-07
2.60678e-06
1.73571e-05
1.87136e-05
2.79476e-06
9.66337e-07
6.17864e-07
5.13099e-07
4.73869e-07
4.57993e-07
4.5149e-07
4.48866e-07
4.47818e-07
4.47382e-07
4.47174e-07
4.47056e-07
4.46982e-07
4.46945e-07
4.46943e-07
4.46977e-07
4.47053e-07
4.47179e-07
4.47398e-07
4.47843e-07
4.48888e-07
4.51488e-07
4.57939e-07
4.73738e-07
5.12888e-07
6.17638e-07
9.66387e-07
2.79713e-06
1.87297e-05
2.06148e-05
3.05834e-06
1.02947e-06
6.42044e-07
5.24439e-07
4.79886e-07
4.61392e-07
4.5346e-07
4.50027e-07
4.48508e-07
4.47792e-07
4.47415e-07
4.47193e-07
4.4706e-07
4.46993e-07
4.46987e-07
4.47047e-07
4.47181e-07
4.47417e-07
4.47819e-07
4.48563e-07
4.50101e-07
4.53526e-07
4.61404e-07
4.79793e-07
5.24196e-07
6.41647e-07
1.02918e-06
3.06062e-06
2.06353e-05
2.32189e-05
3.41847e-06
1.11396e-06
6.73916e-07
5.38696e-07
4.88496e-07
4.66711e-07
4.56849e-07
4.52256e-07
4.5002e-07
4.48852e-07
4.48187e-07
4.47784e-07
4.47543e-07
4.47422e-07
4.47409e-07
4.47511e-07
4.47749e-07
4.48169e-07
4.48874e-07
4.501e-07
4.52393e-07
4.57017e-07
4.66849e-07
4.88523e-07
5.38554e-07
6.7338e-07
1.11322e-06
3.42043e-06
2.32447e-05
2.67875e-05
3.91081e-06
1.22757e-06
7.17641e-07
5.61854e-07
5.02136e-07
4.75579e-07
4.63061e-07
4.56833e-07
4.53526e-07
4.51636e-07
4.50483e-07
4.49756e-07
4.49313e-07
4.4909e-07
4.49066e-07
4.49248e-07
4.49671e-07
4.50411e-07
4.51617e-07
4.53599e-07
4.5702e-07
4.63349e-07
4.75898e-07
5.02362e-07
5.61823e-07
7.17032e-07
1.22626e-06
3.91185e-06
2.6819e-05
3.1667e-05
4.59643e-06
1.38605e-06
7.79891e-07
5.95994e-07
5.23592e-07
4.91118e-07
4.75261e-07
4.66776e-07
4.61863e-07
4.58807e-07
4.56805e-07
4.55481e-07
4.54653e-07
4.54234e-07
4.54191e-07
4.54534e-07
4.55312e-07
4.56629e-07
4.58683e-07
4.61861e-07
4.66955e-07
4.75642e-07
4.91651e-07
5.24128e-07
5.96291e-07
7.79449e-07
1.38424e-06
4.59558e-06
3.16962e-05
3.86671e-05
5.61405e-06
1.62836e-06
8.75724e-07
6.49443e-07
5.6082e-07
5.21681e-07
5.01411e-07
4.89461e-07
4.8196e-07
4.76878e-07
4.73306e-07
4.70833e-07
4.69249e-07
4.68446e-07
4.68379e-07
4.69055e-07
4.70538e-07
4.72959e-07
4.76556e-07
4.81766e-07
4.89503e-07
5.01772e-07
5.2238e-07
5.61677e-07
6.50345e-07
8.75864e-07
1.6264e-06
5.6111e-06
3.86973e-05
4.92496e-05
7.25971e-06
2.04487e-06
1.03926e-06
7.48998e-07
6.40674e-07
5.91193e-07
5.62855e-07
5.4413e-07
5.31964e-07
5.22761e-07
5.15941e-07
5.11087e-07
5.07941e-07
5.06355e-07
5.06259e-07
5.07657e-07
5.10631e-07
5.15353e-07
5.22118e-07
5.31409e-07
5.43839e-07
5.62938e-07
5.9187e-07
6.42016e-07
7.50756e-07
1.04037e-06
2.04268e-06
7.25223e-06
4.92739e-05
6.66607e-05
1.02783e-05
2.83589e-06
1.38957e-06
9.94623e-07
8.5262e-07
7.7905e-07
7.30543e-07
6.95265e-07
6.6892e-07
6.48973e-07
6.34135e-07
6.23537e-07
6.16671e-07
6.1325e-07
6.13134e-07
6.16317e-07
6.22929e-07
6.33262e-07
6.47866e-07
6.67683e-07
6.94091e-07
7.29719e-07
7.78995e-07
8.53742e-07
9.96909e-07
1.39166e-06
2.83236e-06
1.02595e-05
6.66587e-05
0.000100099
1.53031e-05
5.12187e-06
2.56029e-06
1.91168e-06
1.62374e-06
1.4429e-06
1.31338e-06
1.21597e-06
1.14208e-06
1.08646e-06
1.04509e-06
1.01555e-06
9.96519e-07
9.87164e-07
9.87066e-07
9.96208e-07
1.01496e-06
1.04406e-06
1.08493e-06
1.14008e-06
1.2136e-06
1.31089e-06
1.44083e-06
1.62288e-06
1.91235e-06
2.56088e-06
5.11101e-06
1.52607e-05
0.000100034
0.000150662
3.24675e-05
1.38896e-05
9.30233e-06
7.18332e-06
5.95631e-06
5.12188e-06
4.51274e-06
4.05701e-06
3.71641e-06
3.46351e-06
3.27629e-06
3.14401e-06
3.05975e-06
3.0189e-06
3.01921e-06
3.06063e-06
3.14535e-06
3.27773e-06
3.4645e-06
3.71706e-06
4.05723e-06
4.51238e-06
5.12077e-06
5.9544e-06
7.17986e-06
9.29369e-06
1.38645e-05
3.24012e-05
0.000150453
0.00152335
0.000224214
0.000110739
7.00908e-05
5.20636e-05
4.17903e-05
3.50842e-05
3.0438e-05
2.70961e-05
2.46495e-05
2.28471e-05
2.15125e-05
2.05784e-05
1.99872e-05
1.97018e-05
1.97046e-05
1.99958e-05
2.05931e-05
2.15329e-05
2.28689e-05
2.4676e-05
2.71284e-05
3.04763e-05
3.51284e-05
4.18382e-05
5.21084e-05
7.01138e-05
0.00011069
0.000223954
0.00152127
0.00113047
0.000169969
8.92307e-05
5.87611e-05
4.5428e-05
3.767e-05
3.2541e-05
2.89517e-05
2.62918e-05
2.43063e-05
2.28346e-05
2.18081e-05
2.10932e-05
2.06364e-05
2.04116e-05
2.04069e-05
2.06219e-05
2.10681e-05
2.17727e-05
2.27998e-05
2.42609e-05
2.62293e-05
2.88431e-05
3.24091e-05
3.75285e-05
4.53016e-05
5.87068e-05
8.93795e-05
0.000170745
0.00113655
0.000107785
3.11958e-05
2.04815e-05
1.44014e-05
1.15354e-05
9.67691e-06
8.3043e-06
7.29352e-06
6.51972e-06
5.92683e-06
5.48164e-06
5.16252e-06
4.9438e-06
4.80643e-06
4.73962e-06
4.73861e-06
4.80355e-06
4.93969e-06
5.15857e-06
5.47954e-06
5.9262e-06
6.52034e-06
7.29589e-06
8.31462e-06
9.69593e-06
1.15668e-05
1.44586e-05
2.0589e-05
3.15073e-05
0.000108449
8.42078e-05
2.24987e-05
1.143e-05
5.82582e-06
3.73856e-06
2.8953e-06
2.42999e-06
2.10942e-06
1.87239e-06
1.69447e-06
1.56276e-06
1.46891e-06
1.40558e-06
1.36624e-06
1.3475e-06
1.34783e-06
1.36733e-06
1.40773e-06
1.47331e-06
1.57012e-06
1.70482e-06
1.88554e-06
2.12427e-06
2.44367e-06
2.90169e-06
3.73377e-06
5.81866e-06
1.14788e-05
2.27073e-05
8.44736e-05
5.75965e-05
1.63658e-05
6.57772e-06
2.81628e-06
1.56484e-06
1.15271e-06
9.82043e-07
8.83688e-07
8.13884e-07
7.6114e-07
7.21383e-07
6.92235e-07
6.72058e-07
6.5944e-07
6.53492e-07
6.53808e-07
6.60416e-07
6.73781e-07
6.94849e-07
7.24943e-07
7.65506e-07
8.18585e-07
8.87618e-07
9.83269e-07
1.14831e-06
1.55259e-06
2.79938e-06
6.60313e-06
1.64863e-05
5.7618e-05
4.43967e-05
1.16379e-05
4.14595e-06
1.69555e-06
9.54281e-07
7.01725e-07
6.0327e-07
5.55626e-07
5.25705e-07
5.02805e-07
4.85935e-07
4.73608e-07
4.65272e-07
4.60165e-07
4.57844e-07
4.58143e-07
4.61057e-07
4.66719e-07
4.75453e-07
4.88004e-07
5.04834e-07
5.27337e-07
5.56163e-07
6.01887e-07
6.97472e-07
9.4706e-07
1.69014e-06
4.16575e-06
1.16982e-05
4.43268e-05
3.63024e-05
8.79615e-06
2.86591e-06
1.21311e-06
7.24061e-07
5.47831e-07
4.71767e-07
4.37555e-07
4.20141e-07
4.09099e-07
4.01297e-07
3.9567e-07
3.91808e-07
3.89444e-07
3.88402e-07
3.88603e-07
3.90028e-07
3.92714e-07
3.96774e-07
4.02424e-07
4.09987e-07
4.20426e-07
4.36841e-07
4.70044e-07
5.45164e-07
7.21343e-07
1.21376e-06
2.88324e-06
8.82518e-06
3.62157e-05
3.07797e-05
7.01166e-06
2.15986e-06
9.62433e-07
6.11828e-07
4.76266e-07
4.17484e-07
3.90287e-07
3.76946e-07
3.69712e-07
3.653e-07
3.62401e-07
3.60497e-07
3.5936e-07
3.5888e-07
3.59004e-07
3.59712e-07
3.61017e-07
3.62987e-07
3.65802e-07
3.69932e-07
3.7667e-07
3.89388e-07
4.16097e-07
4.75018e-07
6.11563e-07
9.65358e-07
2.17334e-06
7.02289e-06
3.07227e-05
2.68688e-05
5.86125e-06
1.74905e-06
8.1807e-07
5.46939e-07
4.39101e-07
3.91445e-07
3.68644e-07
3.57444e-07
3.51792e-07
3.48789e-07
3.47091e-07
3.46099e-07
3.45554e-07
3.45341e-07
3.45411e-07
3.45749e-07
3.46372e-07
3.47363e-07
3.48957e-07
3.5174e-07
3.57087e-07
3.68003e-07
3.90737e-07
4.38791e-07
5.47712e-07
8.21119e-07
1.75823e-06
5.86445e-06
2.6814e-05
2.41485e-05
5.09163e-06
1.49717e-06
7.2926e-07
5.05557e-07
4.17076e-07
3.77152e-07
3.5773e-07
3.48117e-07
3.43386e-07
3.41069e-07
3.39927e-07
3.39361e-07
3.39094e-07
3.39005e-07
3.39043e-07
3.39195e-07
3.39492e-07
3.40037e-07
3.41098e-07
3.43284e-07
3.47875e-07
3.57428e-07
3.76989e-07
4.17359e-07
5.06571e-07
7.31627e-07
1.50263e-06
5.09022e-06
2.41057e-05
2.21309e-05
4.55748e-06
1.33386e-06
6.71118e-07
4.76735e-07
4.02344e-07
3.68342e-07
3.51684e-07
3.43412e-07
3.39377e-07
3.37473e-07
3.3661e-07
3.36239e-07
3.36095e-07
3.36056e-07
3.36075e-07
3.36144e-07
3.36299e-07
3.36652e-07
3.37469e-07
3.39316e-07
3.4332e-07
3.51645e-07
3.68506e-07
4.02906e-07
4.77875e-07
6.72709e-07
1.33657e-06
4.55387e-06
2.21004e-05
2.0626e-05
4.17899e-06
1.22379e-06
6.31756e-07
4.58336e-07
3.92364e-07
3.62536e-07
3.48035e-07
3.40878e-07
3.37412e-07
3.35802e-07
3.35098e-07
3.34816e-07
3.34719e-07
3.34697e-07
3.34707e-07
3.34745e-07
3.34846e-07
3.3512e-07
3.35808e-07
3.37408e-07
3.40898e-07
3.48143e-07
3.62826e-07
3.92932e-07
4.5921e-07
6.32662e-07
1.22464e-06
4.17442e-06
2.06044e-05
1.95212e-05
3.91157e-06
1.14847e-06
6.04563e-07
4.45697e-07
3.85484e-07
3.58583e-07
3.4569e-07
3.39409e-07
3.36399e-07
3.35011e-07
3.3441e-07
3.34171e-07
3.34089e-07
3.3407e-07
3.34076e-07
3.34105e-07
3.34192e-07
3.34432e-07
3.35036e-07
3.36438e-07
3.3949e-07
3.45854e-07
3.58876e-07
3.85937e-07
4.46267e-07
6.04985e-07
1.14821e-06
3.90673e-06
1.95055e-05
1.87442e-05
3.72864e-06
1.09802e-06
5.8606e-07
4.37052e-07
3.8078e-07
3.55903e-07
3.44153e-07
3.38513e-07
3.35844e-07
3.34621e-07
3.34089e-07
3.33874e-07
3.33796e-07
3.33774e-07
3.33779e-07
3.33808e-07
3.33893e-07
3.34117e-07
3.34661e-07
3.35906e-07
3.38617e-07
3.4432e-07
3.56151e-07
3.81103e-07
4.37386e-07
5.86183e-07
1.09718e-06
3.72387e-06
1.87322e-05
1.82488e-05
3.61421e-06
1.06683e-06
5.74314e-07
4.31566e-07
3.778e-07
3.54214e-07
3.43199e-07
3.3798e-07
3.35536e-07
3.34423e-07
3.33936e-07
3.33734e-07
3.33656e-07
3.33632e-07
3.33636e-07
3.33668e-07
3.33754e-07
3.33967e-07
3.3447e-07
3.35607e-07
3.38086e-07
3.43352e-07
3.54414e-07
3.78026e-07
4.31747e-07
5.74254e-07
1.06572e-06
3.60961e-06
1.8239e-05
1.80078e-05
3.55913e-06
1.05189e-06
5.68645e-07
4.28893e-07
3.76343e-07
3.53388e-07
3.42735e-07
3.37723e-07
3.35392e-07
3.34335e-07
3.3387e-07
3.33674e-07
3.33596e-07
3.33571e-07
3.33575e-07
3.33608e-07
3.33694e-07
3.33902e-07
3.34383e-07
3.35463e-07
3.37825e-07
3.42873e-07
3.53558e-07
3.76519e-07
4.29005e-07
5.68513e-07
1.05072e-06
3.55473e-06
1.7999e-05
1.80085e-05
3.5593e-06
1.0519e-06
5.68636e-07
4.2888e-07
3.7633e-07
3.53377e-07
3.42725e-07
3.37714e-07
3.35385e-07
3.34328e-07
3.33864e-07
3.33668e-07
3.33591e-07
3.33565e-07
3.33568e-07
3.336e-07
3.33686e-07
3.33893e-07
3.34373e-07
3.35452e-07
3.37812e-07
3.42858e-07
3.53542e-07
3.76502e-07
4.28994e-07
5.68521e-07
1.0508e-06
3.55503e-06
1.79997e-05
1.8251e-05
3.61475e-06
1.06688e-06
5.74292e-07
4.31528e-07
3.77762e-07
3.5418e-07
3.43169e-07
3.37954e-07
3.35514e-07
3.34404e-07
3.33918e-07
3.33717e-07
3.33639e-07
3.33614e-07
3.33617e-07
3.33647e-07
3.33731e-07
3.33941e-07
3.3444e-07
3.35573e-07
3.38046e-07
3.43305e-07
3.54363e-07
3.77975e-07
4.31712e-07
5.74273e-07
1.06595e-06
3.61054e-06
1.8241e-05
1.87479e-05
3.7296e-06
1.09815e-06
5.86037e-07
4.36997e-07
3.80722e-07
3.55849e-07
3.44104e-07
3.38471e-07
3.35808e-07
3.3459e-07
3.3406e-07
3.33846e-07
3.33768e-07
3.33745e-07
3.33747e-07
3.33773e-07
3.33855e-07
3.34073e-07
3.34612e-07
3.35849e-07
3.3855e-07
3.44242e-07
3.56063e-07
3.81013e-07
4.37316e-07
5.86202e-07
1.09756e-06
3.72544e-06
1.87357e-05
1.95265e-05
3.91306e-06
1.14874e-06
6.04561e-07
4.45638e-07
3.85413e-07
3.58512e-07
3.45625e-07
3.39352e-07
3.3635e-07
3.34969e-07
3.34372e-07
3.34135e-07
3.34053e-07
3.34031e-07
3.34033e-07
3.34057e-07
3.34139e-07
3.34373e-07
3.34969e-07
3.3636e-07
3.39398e-07
3.45744e-07
3.58749e-07
3.85801e-07
4.46152e-07
6.04989e-07
1.14874e-06
3.90904e-06
1.9511e-05
2.06328e-05
4.18118e-06
1.22435e-06
6.31814e-07
4.58294e-07
3.92289e-07
3.62451e-07
3.47954e-07
3.40807e-07
3.37352e-07
3.35752e-07
3.35054e-07
3.34775e-07
3.34677e-07
3.34651e-07
3.34656e-07
3.34686e-07
3.34781e-07
3.35047e-07
3.35725e-07
3.37313e-07
3.40785e-07
3.48008e-07
3.62665e-07
3.9275e-07
4.59044e-07
6.32648e-07
1.22534e-06
4.17763e-06
2.06125e-05
2.21392e-05
4.56062e-06
1.33489e-06
6.71287e-07
4.76729e-07
4.02269e-07
3.68245e-07
3.51588e-07
3.4333e-07
3.39312e-07
3.37422e-07
3.36568e-07
3.36199e-07
3.36053e-07
3.36008e-07
3.36019e-07
3.36079e-07
3.36225e-07
3.36568e-07
3.37375e-07
3.39209e-07
3.43196e-07
3.51496e-07
3.68326e-07
4.02695e-07
4.77669e-07
6.72676e-07
1.3375e-06
4.55817e-06
2.21118e-05
2.41582e-05
5.09614e-06
1.49893e-06
7.29608e-07
5.05592e-07
4.17e-07
3.77039e-07
3.57622e-07
3.48032e-07
3.43328e-07
3.4103e-07
3.39899e-07
3.39334e-07
3.39063e-07
3.38963e-07
3.38989e-07
3.39129e-07
3.39414e-07
3.39949e-07
3.41001e-07
3.43177e-07
3.47756e-07
3.57288e-07
3.76818e-07
4.17159e-07
5.06399e-07
7.31602e-07
1.50383e-06
5.09579e-06
2.41215e-05
2.68799e-05
5.86769e-06
1.75194e-06
8.18673e-07
5.4703e-07
4.39015e-07
3.91318e-07
3.68538e-07
3.57379e-07
3.51764e-07
3.48786e-07
3.47098e-07
3.46104e-07
3.45548e-07
3.45319e-07
3.45371e-07
3.45692e-07
3.46299e-07
3.47279e-07
3.48866e-07
3.51647e-07
3.56994e-07
3.67904e-07
3.9062e-07
4.38647e-07
5.47592e-07
8.21194e-07
1.75997e-06
5.87164e-06
2.68328e-05
3.07892e-05
7.02164e-06
2.16459e-06
9.63341e-07
6.11918e-07
4.76186e-07
4.1737e-07
3.90225e-07
3.76948e-07
3.6976e-07
3.65373e-07
3.62477e-07
3.60562e-07
3.59405e-07
3.58899e-07
3.58996e-07
3.59679e-07
3.60964e-07
3.62921e-07
3.65733e-07
3.69871e-07
3.7663e-07
3.89374e-07
4.16105e-07
4.75037e-07
6.116e-07
9.65771e-07
2.17657e-06
7.03388e-06
3.0745e-05
3.63236e-05
8.8153e-06
2.87311e-06
1.21429e-06
7.24127e-07
5.47755e-07
4.71756e-07
4.37633e-07
4.20302e-07
4.09293e-07
4.01506e-07
3.95867e-07
3.91979e-07
3.89578e-07
3.88496e-07
3.88658e-07
3.90049e-07
3.92708e-07
3.9675e-07
4.024e-07
4.09982e-07
4.20468e-07
4.36958e-07
4.70244e-07
5.45456e-07
7.21797e-07
1.21493e-06
2.8891e-06
8.84578e-06
3.62627e-05
4.44314e-05
1.16631e-05
4.15567e-06
1.69725e-06
9.54434e-07
7.01767e-07
6.03502e-07
5.56041e-07
5.26166e-07
5.03211e-07
4.86373e-07
4.73997e-07
4.65616e-07
4.60445e-07
4.58064e-07
4.58312e-07
4.61182e-07
4.6681e-07
4.75524e-07
4.88086e-07
5.04946e-07
5.27511e-07
5.56471e-07
6.02348e-07
6.98257e-07
9.48577e-07
1.69331e-06
4.17486e-06
1.17217e-05
4.43933e-05
5.76573e-05
1.64018e-05
6.59354e-06
2.82018e-06
1.56569e-06
1.15362e-06
9.83388e-07
8.85133e-07
8.15189e-07
7.62235e-07
7.22288e-07
6.92949e-07
6.72622e-07
6.59908e-07
6.53895e-07
6.54166e-07
6.60741e-07
6.74092e-07
6.95174e-07
7.25271e-07
7.65891e-07
8.19142e-07
8.88519e-07
9.84647e-07
1.15036e-06
1.55631e-06
2.8087e-06
6.62058e-06
1.65133e-05
5.77074e-05
8.43143e-05
2.25442e-05
1.145e-05
5.83309e-06
3.74397e-06
2.90131e-06
2.43674e-06
2.11525e-06
1.87704e-06
1.69815e-06
1.56568e-06
1.471e-06
1.40711e-06
1.36761e-06
1.34881e-06
1.34913e-06
1.36865e-06
1.40918e-06
1.47528e-06
1.57223e-06
1.70716e-06
1.88849e-06
2.12853e-06
2.44977e-06
2.90889e-06
3.74322e-06
5.83181e-06
1.14978e-05
2.27279e-05
8.45775e-05
0.000107974
3.12567e-05
2.05112e-05
1.44225e-05
1.15539e-05
9.6935e-06
8.31857e-06
7.30323e-06
6.52724e-06
5.93308e-06
5.48715e-06
5.16763e-06
4.94869e-06
4.81135e-06
4.74478e-06
4.74411e-06
4.80951e-06
4.9462e-06
5.16563e-06
5.48686e-06
5.9344e-06
6.53025e-06
7.30903e-06
8.3336e-06
9.71757e-06
1.15897e-05
1.44803e-05
2.06101e-05
3.1527e-05
0.000108582
0.00113201
0.000170173
8.93085e-05
5.87945e-05
4.5445e-05
3.76794e-05
3.25464e-05
2.89553e-05
2.62952e-05
2.43106e-05
2.28401e-05
2.1816e-05
2.1102e-05
2.06461e-05
2.04221e-05
2.04183e-05
2.06344e-05
2.1082e-05
2.17878e-05
2.28123e-05
2.42751e-05
2.62473e-05
2.88737e-05
3.245e-05
3.75804e-05
4.53642e-05
5.87801e-05
8.94747e-05
0.000170888
0.00113751
0.000934074
0.000138443
7.52816e-05
5.10248e-05
4.03191e-05
3.3914e-05
2.95223e-05
2.63522e-05
2.4053e-05
2.23524e-05
2.10861e-05
2.01347e-05
1.94663e-05
1.90432e-05
1.88407e-05
1.88472e-05
1.9063e-05
1.95e-05
2.0183e-05
2.1144e-05
2.24261e-05
2.41468e-05
2.64915e-05
2.96825e-05
3.40764e-05
4.04538e-05
5.1074e-05
7.51186e-05
0.000137535
0.000926265
9.1137e-05
3.27365e-05
2.18717e-05
1.65079e-05
1.39599e-05
1.24454e-05
1.13023e-05
1.03121e-05
9.44515e-06
8.71682e-06
8.13365e-06
7.6861e-06
7.36404e-06
7.15721e-06
7.05721e-06
7.05941e-06
7.16348e-06
7.37332e-06
7.69635e-06
8.14222e-06
8.72206e-06
9.44664e-06
1.03098e-05
1.12881e-05
1.24133e-05
1.39076e-05
1.64284e-05
2.17355e-05
3.21236e-05
9.02383e-05
7.2175e-05
2.18602e-05
1.33345e-05
8.51544e-06
6.07439e-06
4.77112e-06
3.97979e-06
3.43589e-06
3.03318e-06
2.72453e-06
2.49064e-06
2.31853e-06
2.19814e-06
2.12242e-06
2.08594e-06
2.08593e-06
2.12222e-06
2.1972e-06
2.31539e-06
2.48416e-06
2.71412e-06
3.01897e-06
3.4197e-06
3.9655e-06
4.76965e-06
6.08711e-06
8.52444e-06
1.32555e-05
2.15947e-05
7.1777e-05
5.01298e-05
1.75581e-05
9.19395e-06
4.96173e-06
2.8836e-06
1.91901e-06
1.47253e-06
1.23693e-06
1.09261e-06
9.88827e-07
9.12351e-07
8.57149e-07
8.19013e-07
7.95115e-07
7.83566e-07
7.83401e-07
7.9458e-07
8.18e-07
8.55535e-07
9.10053e-07
9.85926e-07
1.08979e-06
1.23581e-06
1.47725e-06
1.94116e-06
2.92609e-06
4.99094e-06
9.14361e-06
1.73837e-05
5.0042e-05
3.89375e-05
1.36022e-05
6.49535e-06
3.0526e-06
1.55501e-06
9.68167e-07
7.27583e-07
6.19466e-07
5.60516e-07
5.21802e-07
4.9441e-07
4.74773e-07
4.60435e-07
4.51135e-07
4.46526e-07
4.46296e-07
4.50456e-07
4.59389e-07
4.73743e-07
4.93565e-07
5.21101e-07
5.60525e-07
6.21382e-07
7.34064e-07
9.85304e-07
1.58217e-06
3.07129e-06
6.45836e-06
1.35094e-05
3.89886e-05
3.20793e-05
1.11831e-05
4.62997e-06
1.96021e-06
9.86781e-07
6.3234e-07
4.91481e-07
4.25999e-07
3.90184e-07
3.6858e-07
3.54297e-07
3.44456e-07
3.37667e-07
3.33342e-07
3.31183e-07
3.31042e-07
3.32942e-07
3.37094e-07
3.43873e-07
3.53872e-07
3.68578e-07
3.91107e-07
4.28508e-07
4.9571e-07
6.40783e-07
9.98016e-07
1.96334e-06
4.60129e-06
1.11421e-05
3.21743e-05
2.74782e-05
9.42026e-06
3.4249e-06
1.37194e-06
7.21173e-07
4.91732e-07
3.94078e-07
3.4826e-07
3.24505e-07
3.1076e-07
3.0214e-07
2.96449e-07
2.92674e-07
2.90324e-07
2.89149e-07
2.89043e-07
2.90033e-07
2.92276e-07
2.96078e-07
3.01986e-07
3.11082e-07
3.25623e-07
3.50405e-07
3.97009e-07
4.94743e-07
7.23586e-07
1.37048e-06
3.407e-06
9.40448e-06
2.75544e-05
2.4215e-05
8.05777e-06
2.67606e-06
1.06029e-06
5.85221e-07
4.17676e-07
3.46152e-07
3.12953e-07
2.95685e-07
2.85886e-07
2.79956e-07
2.76204e-07
2.73807e-07
2.72353e-07
2.71634e-07
2.71568e-07
2.72178e-07
2.73589e-07
2.76047e-07
2.80002e-07
2.86296e-07
2.96591e-07
3.14344e-07
3.47782e-07
4.18981e-07
5.85497e-07
1.05811e-06
2.66394e-06
8.05144e-06
2.42827e-05
2.1765e-05
6.99707e-06
2.19538e-06
8.78103e-07
5.08689e-07
3.74575e-07
3.19949e-07
2.94466e-07
2.81266e-07
2.73919e-07
2.69605e-07
2.66975e-07
2.65352e-07
2.64394e-07
2.63929e-07
2.63892e-07
2.64299e-07
2.65246e-07
2.66928e-07
2.69702e-07
2.74235e-07
2.81822e-07
2.95173e-07
3.20567e-07
3.74784e-07
5.08234e-07
8.76254e-07
2.18808e-06
6.9982e-06
2.18191e-05
1.99578e-05
6.19222e-06
1.87705e-06
7.65189e-07
4.58801e-07
3.48504e-07
3.04523e-07
2.83982e-07
2.73473e-07
2.67765e-07
2.64523e-07
2.6262e-07
2.61487e-07
2.60837e-07
2.60528e-07
2.60508e-07
2.60787e-07
2.61435e-07
2.62607e-07
2.6459e-07
2.67933e-07
2.73716e-07
2.84196e-07
3.0452e-07
3.48047e-07
4.57871e-07
7.6394e-07
1.87362e-06
6.19813e-06
1.99989e-05
1.86263e-05
5.59596e-06
1.66219e-06
6.9291e-07
4.26977e-07
3.32974e-07
2.95297e-07
2.7786e-07
2.69105e-07
2.64488e-07
2.61964e-07
2.60544e-07
2.59732e-07
2.59281e-07
2.59071e-07
2.5906e-07
2.59251e-07
2.59699e-07
2.60528e-07
2.61978e-07
2.64528e-07
2.69135e-07
2.77797e-07
2.95025e-07
3.32393e-07
4.26211e-07
6.92248e-07
1.66148e-06
5.60439e-06
1.86577e-05
1.76599e-05
5.16719e-06
1.51825e-06
6.45645e-07
4.06476e-07
3.23321e-07
2.89729e-07
2.74266e-07
2.66634e-07
2.62721e-07
2.60663e-07
2.59556e-07
2.58951e-07
2.58626e-07
2.58479e-07
2.58471e-07
2.58604e-07
2.58922e-07
2.59526e-07
2.60634e-07
2.6268e-07
2.66549e-07
2.74086e-07
2.89398e-07
3.22823e-07
4.0596e-07
6.45376e-07
1.51893e-06
5.17646e-06
1.76844e-05
1.69865e-05
4.87271e-06
1.42353e-06
6.15197e-07
3.93368e-07
3.17291e-07
2.86373e-07
2.72176e-07
2.65252e-07
2.61777e-07
2.60007e-07
2.59093e-07
2.58613e-07
2.58365e-07
2.58256e-07
2.58249e-07
2.58346e-07
2.58582e-07
2.59051e-07
2.59951e-07
2.61694e-07
2.65119e-07
2.71968e-07
2.86069e-07
3.16912e-07
3.93045e-07
6.15118e-07
1.42461e-06
4.88177e-06
1.70061e-05
1.65598e-05
4.68895e-06
1.36598e-06
5.97176e-07
3.85566e-07
3.13742e-07
2.84455e-07
2.71024e-07
2.64518e-07
2.61297e-07
2.59691e-07
2.58884e-07
2.58475e-07
2.58269e-07
2.5818e-07
2.58174e-07
2.5825e-07
2.58442e-07
2.58836e-07
2.59622e-07
2.61198e-07
2.64374e-07
2.70823e-07
2.84195e-07
3.13453e-07
3.85357e-07
5.9719e-07
1.36708e-06
4.69716e-06
1.65761e-05
1.63529e-05
4.60164e-06
1.33894e-06
5.88731e-07
3.81921e-07
3.12096e-07
2.83585e-07
2.70517e-07
2.64206e-07
2.61101e-07
2.59568e-07
2.58808e-07
2.58429e-07
2.58242e-07
2.58162e-07
2.58156e-07
2.58224e-07
2.58398e-07
2.5876e-07
2.59497e-07
2.61e-07
2.64064e-07
2.70329e-07
2.83354e-07
3.11853e-07
3.81753e-07
5.88736e-07
1.33978e-06
4.60814e-06
1.63669e-05
1.6352e-05
4.60148e-06
1.33895e-06
5.88748e-07
3.81938e-07
3.12114e-07
2.83602e-07
2.70533e-07
2.6422e-07
2.61114e-07
2.59579e-07
2.58818e-07
2.58438e-07
2.58251e-07
2.58171e-07
2.58165e-07
2.58235e-07
2.5841e-07
2.58774e-07
2.59514e-07
2.6102e-07
2.64087e-07
2.70353e-07
2.8338e-07
3.11876e-07
3.81768e-07
5.88736e-07
1.3397e-06
4.60759e-06
1.63659e-05
1.65568e-05
4.68814e-06
1.36597e-06
5.97219e-07
3.85616e-07
3.13795e-07
2.84506e-07
2.71072e-07
2.64561e-07
2.61336e-07
2.59725e-07
2.58914e-07
2.58502e-07
2.58295e-07
2.58206e-07
2.58202e-07
2.58282e-07
2.5848e-07
2.5888e-07
2.59674e-07
2.61258e-07
2.64443e-07
2.70899e-07
2.84274e-07
3.13527e-07
3.85407e-07
5.97194e-07
1.36687e-06
4.69553e-06
1.65729e-05
1.69814e-05
4.87123e-06
1.42349e-06
6.15262e-07
3.93449e-07
3.17379e-07
2.86459e-07
2.72258e-07
2.65327e-07
2.61844e-07
2.60065e-07
2.59143e-07
2.58659e-07
2.58408e-07
2.58299e-07
2.58296e-07
2.58399e-07
2.58645e-07
2.59125e-07
2.60039e-07
2.61797e-07
2.65238e-07
2.72101e-07
2.86212e-07
3.1705e-07
3.93146e-07
6.15143e-07
1.42427e-06
4.87903e-06
1.70004e-05
1.76529e-05
5.16486e-06
1.5181e-06
6.45724e-07
4.06586e-07
3.23445e-07
2.89855e-07
2.74387e-07
2.66745e-07
2.62819e-07
2.60746e-07
2.59628e-07
2.59014e-07
2.58687e-07
2.58541e-07
2.58538e-07
2.58681e-07
2.59011e-07
2.59632e-07
2.60759e-07
2.62827e-07
2.66721e-07
2.74281e-07
2.89613e-07
3.23043e-07
4.0614e-07
6.45455e-07
1.51849e-06
5.17241e-06
1.76757e-05
1.86173e-05
5.5925e-06
1.66151e-06
6.92975e-07
4.27112e-07
3.33137e-07
2.9547e-07
2.78028e-07
2.69258e-07
2.64618e-07
2.62072e-07
2.60635e-07
2.59812e-07
2.59357e-07
2.5915e-07
2.59147e-07
2.59351e-07
2.59817e-07
2.60666e-07
2.62142e-07
2.6472e-07
2.69358e-07
2.78054e-07
2.95316e-07
3.32709e-07
4.26497e-07
6.92412e-07
1.66091e-06
5.59875e-06
1.86453e-05
1.9947e-05
6.18735e-06
1.87578e-06
7.6522e-07
4.58954e-07
3.48712e-07
3.04754e-07
2.84209e-07
2.73673e-07
2.6793e-07
2.64655e-07
2.62727e-07
2.61581e-07
2.60927e-07
2.60624e-07
2.60615e-07
2.60911e-07
2.61581e-07
2.62778e-07
2.6479e-07
2.68165e-07
2.73985e-07
2.84505e-07
3.0487e-07
3.48442e-07
4.58265e-07
7.64214e-07
1.87249e-06
6.19075e-06
1.9982e-05
2.17528e-05
6.99018e-06
2.19323e-06
8.78065e-07
5.08848e-07
3.74841e-07
3.20267e-07
2.94768e-07
2.81518e-07
2.74114e-07
2.69752e-07
2.6709e-07
2.65453e-07
2.64494e-07
2.64038e-07
2.64018e-07
2.64447e-07