/*--------------------------------*- C++ -*----------------------------------*\
| =========                 |                                                 |
| \\      /  F ield         | OpenFOAM: The Open Source CFD Toolbox           |
|  \\    /   O peration     | Version:  2312                                  |
|   \\  /    A nd           | Website:  www.openfoam.com                      |
|    \\/     M anipulation  |                                                 |
\*---------------------------------------------------------------------------*/
FoamFile
{
    version     2.0;
    format      ascii;
    arch        "LSB;label=32;scalar=64";
    class       volScalarField;
    location    "600";
    object      k;
}
// * * * * * * * * * * * * * * * * * * * * * * * * * * * * * * * * * * * * * //

dimensions      [0 2 -2 0 0 0 0];

internalField   nonuniform List<scalar> 
27000
(
0.000258535
0.000129213
0.000107326
9.5635e-05
9.01847e-05
8.6785e-05
8.41864e-05
8.19062e-05
8.0004e-05
7.84592e-05
7.72146e-05
7.61864e-05
7.54193e-05
7.4916e-05
7.46708e-05
7.46799e-05
7.49433e-05
7.54645e-05
7.62472e-05
7.72766e-05
7.85317e-05
8.00874e-05
8.19981e-05
8.42828e-05
8.68782e-05
9.02615e-05
9.56753e-05
0.000107304
0.000129109
0.000258278
9.8107e-05
2.14783e-05
2.8222e-05
3.06386e-05
3.24151e-05
3.35854e-05
3.43274e-05
3.47692e-05
3.50096e-05
3.51519e-05
3.52473e-05
3.53111e-05
3.53528e-05
3.53783e-05
3.53907e-05
3.53912e-05
3.53796e-05
3.53545e-05
3.53125e-05
3.52473e-05
3.51508e-05
3.50067e-05
3.47646e-05
3.43221e-05
3.35801e-05
3.24084e-05
3.06277e-05
2.81938e-05
2.14417e-05
9.80146e-05
0.000101297
3.48059e-05
2.88161e-05
2.73186e-05
2.80128e-05
2.89106e-05
2.96697e-05
3.03031e-05
3.0796e-05
3.11749e-05
3.14674e-05
3.169e-05
3.18509e-05
3.19544e-05
3.20035e-05
3.19996e-05
3.1943e-05
3.18325e-05
3.16656e-05
3.14385e-05
3.11434e-05
3.07651e-05
3.02778e-05
2.96565e-05
2.89156e-05
2.80331e-05
2.73475e-05
2.88165e-05
3.4733e-05
0.00010126
9.49048e-05
3.51941e-05
2.87457e-05
2.85674e-05
2.94303e-05
3.02345e-05
3.08656e-05
3.13598e-05
3.17453e-05
3.20412e-05
3.22685e-05
3.24405e-05
3.25645e-05
3.26442e-05
3.26813e-05
3.26768e-05
3.26311e-05
3.25438e-05
3.24142e-05
3.22395e-05
3.20136e-05
3.17246e-05
3.13527e-05
3.08776e-05
3.02677e-05
2.94802e-05
2.86192e-05
2.87651e-05
3.51592e-05
9.49184e-05
9.03926e-05
3.41862e-05
2.90246e-05
2.97247e-05
3.07347e-05
3.14909e-05
3.20299e-05
3.24196e-05
3.27063e-05
3.29174e-05
3.30741e-05
3.31895e-05
3.32713e-05
3.3323e-05
3.33465e-05
3.33426e-05
3.33117e-05
3.32541e-05
3.3169e-05
3.30538e-05
3.2902e-05
3.27013e-05
3.24301e-05
3.20584e-05
3.15352e-05
3.07858e-05
2.97667e-05
2.90374e-05
3.41695e-05
9.04409e-05
8.67033e-05
3.39064e-05
2.94463e-05
3.05045e-05
3.15756e-05
3.2311e-05
3.28004e-05
3.31275e-05
3.3348e-05
3.34979e-05
3.36006e-05
3.36712e-05
3.37185e-05
3.37472e-05
3.37596e-05
3.37566e-05
3.37388e-05
3.37063e-05
3.36579e-05
3.35897e-05
3.34935e-05
3.33542e-05
3.31467e-05
3.28322e-05
3.23508e-05
3.16139e-05
3.05287e-05
2.94487e-05
3.38978e-05
8.67663e-05
8.35376e-05
3.3949e-05
3.00823e-05
3.11362e-05
3.21517e-05
3.28404e-05
3.32857e-05
3.35664e-05
3.37396e-05
3.38444e-05
3.3907e-05
3.39441e-05
3.39655e-05
3.39769e-05
3.39809e-05
3.39789e-05
3.39714e-05
3.3958e-05
3.39369e-05
3.39032e-05
3.38468e-05
3.37505e-05
3.35862e-05
3.33121e-05
3.2868e-05
3.21725e-05
3.1142e-05
3.00706e-05
3.39424e-05
8.36042e-05
8.07819e-05
3.40972e-05
3.07336e-05
3.16813e-05
3.2587e-05
3.32e-05
3.35904e-05
3.38263e-05
3.39602e-05
3.40307e-05
3.40641e-05
3.40774e-05
3.4081e-05
3.40806e-05
3.40791e-05
3.40779e-05
3.40774e-05
3.40771e-05
3.40745e-05
3.40643e-05
3.40358e-05
3.39709e-05
3.38418e-05
3.36078e-05
3.32144e-05
3.25927e-05
3.16745e-05
3.07174e-05
3.40952e-05
8.08568e-05
7.82569e-05
3.42443e-05
3.12795e-05
3.21268e-05
3.2923e-05
3.34539e-05
3.3784e-05
3.39744e-05
3.40735e-05
3.41169e-05
3.41295e-05
3.41272e-05
3.41198e-05
3.41125e-05
3.41079e-05
3.41072e-05
3.41108e-05
3.41181e-05
3.41266e-05
3.41312e-05
3.41218e-05
3.40814e-05
3.3984e-05
3.37926e-05
3.34579e-05
3.29191e-05
3.21145e-05
3.12641e-05
3.42465e-05
7.83258e-05
7.61106e-05
3.4369e-05
3.17158e-05
3.24786e-05
3.31792e-05
3.36359e-05
3.39085e-05
3.40562e-05
3.41247e-05
3.41468e-05
3.41451e-05
3.41336e-05
3.41204e-05
3.41098e-05
3.41039e-05
3.41036e-05
3.41091e-05
3.41198e-05
3.41338e-05
3.41468e-05
3.41502e-05
3.41292e-05
3.40605e-05
3.39105e-05
3.36334e-05
3.3171e-05
3.24657e-05
3.17037e-05
3.4374e-05
7.61679e-05
7.43456e-05
3.44693e-05
3.20562e-05
3.27531e-05
3.33757e-05
3.37678e-05
3.399e-05
3.41005e-05
3.41435e-05
3.41495e-05
3.41384e-05
3.4122e-05
3.41066e-05
3.40952e-05
3.40892e-05
3.40891e-05
3.40949e-05
3.41063e-05
3.41222e-05
3.41394e-05
3.4151e-05
3.41449e-05
3.41009e-05
3.39878e-05
3.37622e-05
3.33665e-05
3.2742e-05
3.20478e-05
3.44759e-05
7.43922e-05
7.29502e-05
3.45456e-05
3.23125e-05
3.29602e-05
3.35225e-05
3.38629e-05
3.40439e-05
3.41245e-05
3.41475e-05
3.41418e-05
3.41249e-05
3.41063e-05
3.40907e-05
3.40799e-05
3.40744e-05
3.40743e-05
3.40797e-05
3.40905e-05
3.41062e-05
3.41249e-05
3.41417e-05
3.41467e-05
3.41223e-05
3.40398e-05
3.38564e-05
3.35141e-05
3.29516e-05
3.23073e-05
3.45531e-05
7.29883e-05
7.19141e-05
3.46e-05
3.2495e-05
3.31079e-05
3.36267e-05
3.39288e-05
3.40792e-05
3.41375e-05
3.41461e-05
3.41325e-05
3.41122e-05
3.4093e-05
3.40781e-05
3.40684e-05
3.40635e-05
3.40634e-05
3.40681e-05
3.40777e-05
3.40924e-05
3.41113e-05
3.41312e-05
3.4144e-05
3.41341e-05
3.40743e-05
3.39225e-05
3.36197e-05
3.31017e-05
3.24924e-05
3.46079e-05
7.19459e-05
7.12282e-05
3.46346e-05
3.26121e-05
3.32029e-05
3.36932e-05
3.39703e-05
3.41007e-05
3.41444e-05
3.41438e-05
3.41254e-05
3.41033e-05
3.40841e-05
3.40701e-05
3.40613e-05
3.4057e-05
3.40569e-05
3.40609e-05
3.40695e-05
3.40832e-05
3.41019e-05
3.41234e-05
3.4141e-05
3.41405e-05
3.40957e-05
3.39646e-05
3.36876e-05
3.31985e-05
3.26112e-05
3.46427e-05
7.12559e-05
7.0886e-05
3.46511e-05
3.26691e-05
3.32492e-05
3.37257e-05
3.39904e-05
3.41109e-05
3.41475e-05
3.41425e-05
3.41217e-05
3.40989e-05
3.40799e-05
3.40664e-05
3.40581e-05
3.40541e-05
3.4054e-05
3.40577e-05
3.40657e-05
3.40788e-05
3.40973e-05
3.41195e-05
3.41394e-05
3.41435e-05
3.41061e-05
3.39852e-05
3.37207e-05
3.32458e-05
3.2669e-05
3.46592e-05
7.09119e-05
7.08841e-05
3.46505e-05
3.26689e-05
3.32492e-05
3.37257e-05
3.39905e-05
3.41109e-05
3.41476e-05
3.41426e-05
3.41219e-05
3.4099e-05
3.408e-05
3.40665e-05
3.40582e-05
3.40542e-05
3.40541e-05
3.40579e-05
3.40659e-05
3.40791e-05
3.40976e-05
3.41198e-05
3.41397e-05
3.41438e-05
3.41063e-05
3.39854e-05
3.37208e-05
3.32457e-05
3.26688e-05
3.46584e-05
7.091e-05
7.12224e-05
3.46328e-05
3.26115e-05
3.32027e-05
3.36933e-05
3.39705e-05
3.41009e-05
3.41447e-05
3.41442e-05
3.41258e-05
3.41036e-05
3.40845e-05
3.40705e-05
3.40616e-05
3.40574e-05
3.40573e-05
3.40614e-05
3.40701e-05
3.40839e-05
3.41026e-05
3.41242e-05
3.41418e-05
3.41413e-05
3.40964e-05
3.39652e-05
3.36879e-05
3.31984e-05
3.26103e-05
3.46404e-05
7.12503e-05
7.19047e-05
3.4597e-05
3.24939e-05
3.31075e-05
3.36266e-05
3.3929e-05
3.40796e-05
3.4138e-05
3.41467e-05
3.41331e-05
3.41127e-05
3.40935e-05
3.40786e-05
3.40688e-05
3.4064e-05
3.4064e-05
3.40688e-05
3.40785e-05
3.40934e-05
3.41124e-05
3.41323e-05
3.41452e-05
3.41353e-05
3.40755e-05
3.39235e-05
3.36203e-05
3.31016e-05
3.24911e-05
3.4604e-05
7.19362e-05
7.29376e-05
3.45414e-05
3.23108e-05
3.29594e-05
3.35223e-05
3.3863e-05
3.40444e-05
3.41251e-05
3.41481e-05
3.41424e-05
3.41254e-05
3.41067e-05
3.40911e-05
3.40803e-05
3.40749e-05
3.40749e-05
3.40804e-05
3.40913e-05
3.41072e-05
3.41261e-05
3.4143e-05
3.41481e-05
3.41238e-05
3.40412e-05
3.38576e-05
3.35149e-05
3.29515e-05
3.23055e-05
3.45476e-05
7.29743e-05
7.43302e-05
3.44638e-05
3.20537e-05
3.27519e-05
3.33752e-05
3.37678e-05
3.39903e-05
3.41011e-05
3.4144e-05
3.41499e-05
3.41387e-05
3.41221e-05
3.41066e-05
3.40953e-05
3.40894e-05
3.40894e-05
3.40954e-05
3.4107e-05
3.41231e-05
3.41404e-05
3.41522e-05
3.41463e-05
3.41023e-05
3.39893e-05
3.37636e-05
3.33675e-05
3.27419e-05
3.20455e-05
3.44687e-05
7.43735e-05
7.60932e-05
3.43621e-05
3.17122e-05
3.24766e-05
3.31783e-05
3.36357e-05
3.39087e-05
3.40566e-05
3.41249e-05
3.41468e-05
3.41448e-05
3.41331e-05
3.41197e-05
3.41092e-05
3.41034e-05
3.41033e-05
3.4109e-05
3.412e-05
3.41343e-05
3.41475e-05
3.4151e-05
3.41301e-05
3.40615e-05
3.39116e-05
3.36345e-05
3.31718e-05
3.24655e-05
3.17009e-05
3.4365e-05
7.61442e-05
7.82381e-05
3.42358e-05
3.12745e-05
3.21239e-05
3.29216e-05
3.34535e-05
3.3784e-05
3.39744e-05
3.40732e-05
3.41161e-05
3.41283e-05
3.41257e-05
3.41182e-05
3.41108e-05
3.41064e-05
3.41061e-05
3.411e-05
3.41176e-05
3.41264e-05
3.41311e-05
3.41218e-05
3.40815e-05
3.39841e-05
3.37927e-05
3.34582e-05
3.29192e-05
3.21137e-05
3.12606e-05
3.42359e-05
7.8297e-05
8.07625e-05
3.4087e-05
3.07272e-05
3.16778e-05
3.25854e-05
3.31994e-05
3.35901e-05
3.38256e-05
3.3959e-05
3.40288e-05
3.40616e-05
3.40745e-05
3.4078e-05
3.40777e-05
3.40764e-05
3.40756e-05
3.40756e-05
3.40756e-05
3.40734e-05
3.40633e-05
3.40347e-05
3.39698e-05
3.38404e-05
3.36064e-05
3.3213e-05
3.25914e-05
3.16725e-05
3.07126e-05
3.4083e-05
8.08264e-05
8.35209e-05
3.39372e-05
3.00749e-05
3.11327e-05
3.21502e-05
3.28396e-05
3.32848e-05
3.35647e-05
3.37369e-05
3.38408e-05
3.39026e-05
3.39393e-05
3.39607e-05
3.39722e-05
3.39767e-05
3.39752e-05
3.39682e-05
3.39554e-05
3.39346e-05
3.3901e-05
3.38446e-05
3.37478e-05
3.35831e-05
3.33086e-05
3.28642e-05
3.21687e-05
3.11379e-05
3.00641e-05
3.39285e-05
8.35728e-05
8.66856e-05
3.38938e-05
2.94403e-05
3.05013e-05
3.1574e-05
3.23095e-05
3.27982e-05
3.31239e-05
3.33431e-05
3.34918e-05
3.35938e-05
3.36641e-05
3.37115e-05
3.37406e-05
3.37535e-05
3.37512e-05
3.37342e-05
3.37023e-05
3.36543e-05
3.35863e-05
3.34899e-05
3.335e-05
3.31417e-05
3.28264e-05
3.23441e-05
3.16068e-05
3.05217e-05
2.94414e-05
3.3883e-05
8.67312e-05
9.03725e-05
3.41707e-05
2.90174e-05
2.97208e-05
3.07322e-05
3.14879e-05
3.20254e-05
3.24132e-05
3.26982e-05
3.29083e-05
3.30646e-05
3.31799e-05
3.32619e-05
3.33142e-05
3.33384e-05
3.33352e-05
3.33052e-05
3.32484e-05
3.3164e-05
3.30491e-05
3.2897e-05
3.26956e-05
3.24235e-05
3.20504e-05
3.15258e-05
3.07751e-05
2.97554e-05
2.90263e-05
3.41517e-05
9.04026e-05
9.48803e-05
3.51747e-05
2.87359e-05
2.8562e-05
2.94258e-05
3.02289e-05
3.08576e-05
3.13496e-05
3.17337e-05
3.2029e-05
3.22562e-05
3.24284e-05
3.25528e-05
3.2633e-05
3.26709e-05
3.26672e-05
3.26223e-05
3.25361e-05
3.24073e-05
3.22331e-05
3.20071e-05
3.17175e-05
3.13446e-05
3.08683e-05
3.02569e-05
2.94669e-05
2.86036e-05
2.87487e-05
3.51386e-05
9.48784e-05
0.000101269
3.47845e-05
2.88007e-05
2.73101e-05
2.80049e-05
2.89014e-05
2.96565e-05
3.02885e-05
3.07812e-05
3.11603e-05
3.14533e-05
3.16761e-05
3.18372e-05
3.19412e-05
3.19908e-05
3.19875e-05
3.19316e-05
3.18218e-05
3.16558e-05
3.14292e-05
3.1134e-05
3.07552e-05
3.0267e-05
2.96448e-05
2.89048e-05
2.80201e-05
2.73308e-05
2.87945e-05
3.47177e-05
0.000101225
9.80733e-05
2.14683e-05
2.82069e-05
3.06247e-05
3.24013e-05
3.35718e-05
3.43135e-05
3.47553e-05
3.4996e-05
3.51388e-05
3.52345e-05
3.52982e-05
3.53397e-05
3.5365e-05
3.53771e-05
3.53772e-05
3.53653e-05
3.53398e-05
3.52976e-05
3.52322e-05
3.5135e-05
3.49902e-05
3.47475e-05
3.43047e-05
3.35623e-05
3.23895e-05
3.06078e-05
2.81745e-05
2.14338e-05
9.79822e-05
0.000258461
0.000129178
0.000107305
9.56235e-05
9.01777e-05
8.678e-05
8.41818e-05
8.19013e-05
7.99982e-05
7.84519e-05
7.72053e-05
7.61733e-05
7.54041e-05
7.48991e-05
7.4652e-05
7.46593e-05
7.49208e-05
7.54402e-05
7.62218e-05
7.72546e-05
7.85086e-05
8.00622e-05
8.19707e-05
8.42531e-05
8.68469e-05
9.02298e-05
9.56446e-05
0.000107273
0.000129077
0.000258221
0.000211876
0.000107408
9.29219e-05
8.50189e-05
8.23387e-05
8.09716e-05
8.00554e-05
7.92052e-05
7.84007e-05
7.7716e-05
7.71706e-05
7.6861e-05
7.66478e-05
7.65038e-05
7.6426e-05
7.6414e-05
7.64675e-05
7.65866e-05
7.67772e-05
7.70918e-05
7.76185e-05
7.82756e-05
7.90056e-05
7.98375e-05
8.07676e-05
8.21851e-05
8.49666e-05
9.30265e-05
0.000107738
0.000212642
7.84606e-05
2.3816e-05
4.13263e-05
4.21469e-05
4.33916e-05
4.36179e-05
4.32242e-05
4.28229e-05
4.23184e-05
4.1793e-05
4.13225e-05
4.09497e-05
4.06815e-05
4.0509e-05
4.04243e-05
4.04233e-05
4.05065e-05
4.06788e-05
4.0949e-05
4.13252e-05
4.17987e-05
4.23287e-05
4.28437e-05
4.32808e-05
4.37034e-05
4.3505e-05
4.22968e-05
4.15037e-05
2.40361e-05
7.87854e-05
9.02546e-05
5.08836e-05
4.09933e-05
3.28327e-05
3.00917e-05
2.95897e-05
2.95008e-05
2.93042e-05
2.90933e-05
2.88928e-05
2.87154e-05
2.85716e-05
2.84663e-05
2.84026e-05
2.83773e-05
2.83878e-05
2.84343e-05
2.85191e-05
2.8642e-05
2.88016e-05
2.89944e-05
2.92042e-05
2.94102e-05
2.95799e-05
2.96112e-05
3.00631e-05
3.27972e-05
4.10806e-05
5.1324e-05
9.04467e-05
8.60741e-05
4.96342e-05
3.61222e-05
2.82498e-05
2.48616e-05
2.43166e-05
2.4653e-05
2.50849e-05
2.54382e-05
2.57441e-05
2.59752e-05
2.61387e-05
2.62492e-05
2.63209e-05
2.63625e-05
2.63776e-05
2.63658e-05
2.63223e-05
2.62358e-05
2.60904e-05
2.58666e-05
2.55471e-05
2.51483e-05
2.46501e-05
2.42281e-05
2.47015e-05
2.81166e-05
3.61679e-05
4.99403e-05
8.60961e-05
8.43328e-05
4.54911e-05
3.22945e-05
2.58814e-05
2.38834e-05
2.38386e-05
2.44354e-05
2.5091e-05
2.56348e-05
2.60654e-05
2.63924e-05
2.66291e-05
2.67909e-05
2.68935e-05
2.69485e-05
2.69611e-05
2.69303e-05
2.68488e-05
2.67025e-05
2.64728e-05
2.61393e-05
2.56812e-05
2.50858e-05
2.43604e-05
2.36954e-05
2.37242e-05
2.5771e-05
3.23233e-05
4.56887e-05
8.42437e-05
8.31115e-05
4.21691e-05
3.00741e-05
2.50889e-05
2.41681e-05
2.45502e-05
2.52148e-05
2.58626e-05
2.64074e-05
2.68374e-05
2.71632e-05
2.74002e-05
2.75637e-05
2.76673e-05
2.77211e-05
2.77301e-05
2.76929e-05
2.76025e-05
2.7446e-05
2.72071e-05
2.68667e-05
2.64076e-05
2.5821e-05
2.51278e-05
2.44316e-05
2.40548e-05
2.50468e-05
3.01228e-05
4.22859e-05
8.29782e-05
8.19504e-05
4.00076e-05
2.84912e-05
2.49239e-05
2.47845e-05
2.53758e-05
2.60475e-05
2.66467e-05
2.71403e-05
2.75275e-05
2.78196e-05
2.80317e-05
2.81778e-05
2.82701e-05
2.83171e-05
2.83227e-05
2.8286e-05
2.82007e-05
2.80561e-05
2.78381e-05
2.75312e-05
2.71214e-05
2.66013e-05
2.59809e-05
2.53054e-05
2.47413e-05
2.49437e-05
2.85636e-05
4.00441e-05
8.18486e-05
8.09222e-05
3.87262e-05
2.75228e-05
2.50335e-05
2.53603e-05
2.60769e-05
2.67403e-05
2.72902e-05
2.77259e-05
2.80599e-05
2.83077e-05
2.84852e-05
2.86062e-05
2.86818e-05
2.87195e-05
2.87227e-05
2.86906e-05
2.8618e-05
2.84958e-05
2.8312e-05
2.80529e-05
2.77047e-05
2.72563e-05
2.67023e-05
2.60507e-05
2.53686e-05
2.5089e-05
2.75903e-05
3.8741e-05
8.08122e-05
8.03098e-05
3.78684e-05
2.7027e-05
2.53074e-05
2.58649e-05
2.6632e-05
2.72784e-05
2.77824e-05
2.81634e-05
2.84445e-05
2.86465e-05
2.87873e-05
2.88812e-05
2.89387e-05
2.89667e-05
2.89684e-05
2.8943e-05
2.88863e-05
2.87905e-05
2.86449e-05
2.84359e-05
2.8148e-05
2.77639e-05
2.7265e-05
2.66356e-05
2.58976e-05
2.53702e-05
2.70803e-05
3.7871e-05
8.02141e-05
7.97775e-05
3.72727e-05
2.67766e-05
2.55834e-05
2.62717e-05
2.70563e-05
2.76802e-05
2.81428e-05
2.84753e-05
2.87086e-05
2.88686e-05
2.89753e-05
2.90438e-05
2.90844e-05
2.91037e-05
2.91045e-05
2.90863e-05
2.90456e-05
2.89756e-05
2.8866e-05
2.87028e-05
2.84676e-05
2.81371e-05
2.76828e-05
2.70742e-05
2.63098e-05
2.5637e-05
2.68133e-05
3.72688e-05
7.97034e-05
7.93103e-05
3.68559e-05
2.66579e-05
2.58153e-05
2.65793e-05
2.7369e-05
2.79702e-05
2.83969e-05
2.86886e-05
2.88818e-05
2.90063e-05
2.90842e-05
2.91312e-05
2.91577e-05
2.91698e-05
2.91701e-05
2.91585e-05
2.91319e-05
2.90841e-05
2.9005e-05
2.88797e-05
2.86874e-05
2.83997e-05
2.79808e-05
2.73909e-05
2.66131e-05
2.58549e-05
2.66802e-05
3.68486e-05
7.92541e-05
7.89191e-05
3.6568e-05
2.66119e-05
2.60014e-05
2.68065e-05
2.75926e-05
2.81725e-05
2.85696e-05
2.88286e-05
2.89903e-05
2.9087e-05
2.91424e-05
2.91728e-05
2.91884e-05
2.9195e-05
2.91952e-05
2.91889e-05
2.91734e-05
2.91429e-05
2.90875e-05
2.89914e-05
2.88318e-05
2.85768e-05
2.81858e-05
2.7613e-05
2.68328e-05
2.60275e-05
2.6623e-05
3.65592e-05
7.8876e-05
7.86149e-05
3.63763e-05
2.66027e-05
2.61429e-05
2.69681e-05
2.77461e-05
2.83076e-05
2.86816e-05
2.89161e-05
2.90547e-05
2.91314e-05
2.91707e-05
2.91893e-05
2.91972e-05
2.92001e-05
2.92003e-05
2.91978e-05
2.91902e-05
2.9172e-05
2.91333e-05
2.9058e-05
2.89217e-05
2.86905e-05
2.83207e-05
2.77632e-05
2.69869e-05
2.61583e-05
2.66059e-05
3.63668e-05
7.85808e-05
7.84072e-05
3.62597e-05
2.66079e-05
2.6239e-05
2.70727e-05
2.78424e-05
2.83901e-05
2.8748e-05
2.89664e-05
2.90899e-05
2.91537e-05
2.91828e-05
2.9194e-05
2.91972e-05
2.91978e-05
2.9198e-05
2.91979e-05
2.91952e-05
2.91847e-05
2.91565e-05
2.90943e-05
2.89729e-05
2.87573e-05
2.84021e-05
2.78562e-05
2.70861e-05
2.62476e-05
2.66062e-05
3.62496e-05
7.83786e-05
7.83025e-05
3.62054e-05
2.66138e-05
2.62874e-05
2.7124e-05
2.78887e-05
2.8429e-05
2.87788e-05
2.8989e-05
2.91051e-05
2.91626e-05
2.91869e-05
2.91945e-05
2.91955e-05
2.91949e-05
2.91952e-05
2.91962e-05
2.91958e-05
2.9189e-05
2.91658e-05
2.91098e-05
2.89957e-05
2.87878e-05
2.844e-05
2.79007e-05
2.71346e-05
2.62929e-05
2.66099e-05
3.61945e-05
7.82766e-05
7.83047e-05
3.6206e-05
2.6614e-05
2.62872e-05
2.71237e-05
2.78884e-05
2.84286e-05
2.87784e-05
2.89886e-05
2.91047e-05
2.91622e-05
2.91865e-05
2.91941e-05
2.9195e-05
2.91945e-05
2.91947e-05
2.91957e-05
2.91953e-05
2.91884e-05
2.91652e-05
2.91092e-05
2.8995e-05
2.87871e-05
2.84393e-05
2.79001e-05
2.71342e-05
2.62929e-05
2.66105e-05
3.61953e-05
7.82784e-05
7.84136e-05
3.62613e-05
2.66083e-05
2.62385e-05
2.70719e-05
2.78414e-05
2.8389e-05
2.8747e-05
2.89653e-05
2.90888e-05
2.91525e-05
2.91817e-05
2.91929e-05
2.9196e-05
2.91965e-05
2.91966e-05
2.91964e-05
2.91937e-05
2.91831e-05
2.91548e-05
2.90924e-05
2.8971e-05
2.87552e-05
2.84e-05
2.78544e-05
2.70848e-05
2.62474e-05
2.66078e-05
3.62521e-05
7.83843e-05
7.86254e-05
3.6379e-05
2.66038e-05
2.61424e-05
2.69671e-05
2.77448e-05
2.8306e-05
2.86798e-05
2.89144e-05
2.9053e-05
2.91296e-05
2.9169e-05
2.91875e-05
2.91954e-05
2.91981e-05
2.91982e-05
2.91955e-05
2.91878e-05
2.91694e-05
2.91306e-05
2.90551e-05
2.89186e-05
2.86872e-05
2.83173e-05
2.77599e-05
2.69845e-05
2.61576e-05
2.66084e-05
3.6371e-05
7.85909e-05
7.89333e-05
3.65721e-05
2.66141e-05
2.60015e-05
2.68057e-05
2.7591e-05
2.81704e-05
2.85673e-05
2.88262e-05
2.8988e-05
2.90849e-05
2.91404e-05
2.91707e-05
2.91862e-05
2.91926e-05
2.91926e-05
2.91861e-05
2.91704e-05
2.91397e-05
2.9084e-05
2.89877e-05
2.88278e-05
2.85724e-05
2.81811e-05
2.76084e-05
2.68289e-05
2.60259e-05
2.66262e-05
3.65653e-05
7.88911e-05
7.93277e-05
3.68618e-05
2.66619e-05
2.58165e-05
2.65789e-05
2.73673e-05
2.79677e-05
2.83941e-05
2.86857e-05
2.88793e-05
2.9004e-05
2.90821e-05
2.91292e-05
2.91556e-05
2.91674e-05
2.91675e-05
2.91555e-05
2.91286e-05
2.90805e-05
2.90012e-05
2.88757e-05
2.86829e-05
2.83947e-05
2.79753e-05
2.73851e-05
2.66078e-05
2.58519e-05
2.66839e-05
3.6857e-05
7.9275e-05
7.97975e-05
3.7281e-05
2.67837e-05
2.55868e-05
2.62722e-05
2.70546e-05
2.76773e-05
2.81395e-05
2.84722e-05
2.87061e-05
2.88666e-05
2.89738e-05
2.90424e-05
2.90829e-05
2.91019e-05
2.91022e-05
2.90836e-05
2.90425e-05
2.89721e-05
2.88623e-05
2.86988e-05
2.84633e-05
2.81323e-05
2.76772e-05
2.70679e-05
2.63034e-05
2.56326e-05
2.68176e-05
3.72798e-05
7.97311e-05
8.03314e-05
3.78798e-05
2.70384e-05
2.53136e-05
2.58662e-05
2.663e-05
2.72749e-05
2.77789e-05
2.81607e-05
2.84427e-05
2.86457e-05
2.87871e-05
2.88812e-05
2.89385e-05
2.89661e-05
2.89671e-05
2.89411e-05
2.88838e-05
2.87876e-05
2.86417e-05
2.84327e-05
2.81447e-05
2.77602e-05
2.72605e-05
2.66301e-05
2.58913e-05
2.53652e-05
2.70856e-05
3.7885e-05
8.02494e-05
8.09446e-05
3.87424e-05
2.75398e-05
2.50422e-05
2.53615e-05
2.60738e-05
2.67362e-05
2.72869e-05
2.77244e-05
2.80601e-05
2.83093e-05
2.84875e-05
2.86086e-05
2.86838e-05
2.87208e-05
2.87231e-05
2.86901e-05
2.86166e-05
2.84939e-05
2.831e-05
2.8051e-05
2.77032e-05
2.72549e-05
2.67006e-05
2.60481e-05
2.53648e-05
2.50864e-05
2.75985e-05
3.87593e-05
8.08492e-05
8.19673e-05
4.00338e-05
2.85148e-05
2.49327e-05
2.47837e-05
2.53715e-05
2.60436e-05
2.66452e-05
2.71418e-05
2.75315e-05
2.78253e-05
2.8038e-05
2.8184e-05
2.82755e-05
2.83213e-05
2.83256e-05
2.82876e-05
2.82012e-05
2.80558e-05
2.78377e-05
2.75313e-05
2.71224e-05
2.66036e-05
2.59841e-05
2.53087e-05
2.47435e-05
2.49468e-05
2.85783e-05
4.00731e-05
8.18882e-05
8.31441e-05
4.22345e-05
3.00956e-05
2.5096e-05
2.41659e-05
2.45461e-05
2.52135e-05
2.58658e-05
2.6415e-05
2.6848e-05
2.71752e-05
2.74124e-05
2.75752e-05
2.76774e-05
2.77295e-05
2.77366e-05
2.76977e-05
2.76057e-05
2.74482e-05
2.72089e-05
2.68691e-05
2.64117e-05
2.58278e-05
2.51378e-05
2.44442e-05
2.40685e-05
2.50592e-05
3.014e-05
4.23551e-05
8.30505e-05
8.43769e-05
4.55641e-05
3.23179e-05
2.5891e-05
2.38837e-05
2.3839e-05
2.4442e-05
2.51042e-05
2.56529e-05
2.60861e-05
2.64133e-05
2.66493e-05
2.68095e-05
2.69101e-05
2.69628e-05
2.69729e-05
2.69399e-05
2.68562e-05
2.67081e-05
2.64776e-05
2.61447e-05
2.56888e-05
2.50973e-05
2.43778e-05
2.3719e-05
2.37514e-05
2.58015e-05
3.23479e-05
4.5754e-05
8.43286e-05
8.61353e-05
4.97205e-05
3.61717e-05
2.82663e-05
2.48686e-05
2.43278e-05
2.46732e-05
2.51114e-05
2.54694e-05
2.57759e-05
2.60056e-05
2.61675e-05
2.62761e-05
2.63453e-05
2.63842e-05
2.63968e-05
2.63824e-05
2.63359e-05
2.62465e-05
2.60995e-05
2.58759e-05
2.55588e-05
2.51639e-05
2.46715e-05
2.42562e-05
2.47401e-05
2.8164e-05
3.62279e-05
5.00022e-05
8.61859e-05
9.03318e-05
5.09717e-05
4.10367e-05
3.28468e-05
3.01051e-05
2.96103e-05
2.95377e-05
2.93416e-05
2.91276e-05
2.89241e-05
2.87445e-05
2.8601e-05
2.84956e-05
2.84304e-05
2.84036e-05
2.84127e-05
2.84578e-05
2.854e-05
2.86585e-05
2.88163e-05
2.90092e-05
2.92214e-05
2.94331e-05
2.96095e-05
2.96335e-05
3.00876e-05
3.28246e-05
4.11233e-05
5.13536e-05
9.05218e-05
7.8553e-05
2.38555e-05
4.13751e-05
4.21954e-05
4.34452e-05
4.36733e-05
4.32749e-05
4.28481e-05
4.23372e-05
4.18092e-05
4.13373e-05
4.0964e-05
4.06954e-05
4.05228e-05
4.04383e-05
4.04379e-05
4.05219e-05
4.06951e-05
4.09657e-05
4.13424e-05
4.18177e-05
4.23513e-05
4.28747e-05
4.33446e-05
4.37709e-05
4.35657e-05
4.23407e-05
4.15363e-05
2.40441e-05
7.8851e-05
0.000212072
0.000107497
9.2977e-05
8.50518e-05
8.23596e-05
8.09853e-05
8.00642e-05
7.92118e-05
7.84075e-05
7.77249e-05
7.71827e-05
7.68799e-05
7.66697e-05
7.65281e-05
7.64526e-05
7.6443e-05
7.64991e-05
7.66209e-05
7.68132e-05
7.71202e-05
7.7649e-05
7.83118e-05
7.90621e-05
7.99055e-05
8.08429e-05
8.22619e-05
8.50385e-05
9.30939e-05
0.0001078
0.000212765
0.000186537
9.3666e-05
8.29609e-05
7.73821e-05
7.60472e-05
7.55023e-05
7.50333e-05
7.43996e-05
7.38912e-05
7.34996e-05
7.31861e-05
7.28862e-05
7.26633e-05
7.25228e-05
7.24619e-05
7.24786e-05
7.25732e-05
7.27475e-05
7.30029e-05
7.332e-05
7.36612e-05
7.40833e-05
7.46619e-05
7.53048e-05
7.57432e-05
7.62161e-05
7.74309e-05
8.28398e-05
9.32538e-05
0.000185491
7.01422e-05
2.99644e-05
5.08882e-05
5.3993e-05
5.70046e-05
5.93471e-05
6.07194e-05
6.09183e-05
6.03407e-05
5.9391e-05
5.83784e-05
5.74723e-05
5.67604e-05
5.62804e-05
5.60449e-05
5.60564e-05
5.63132e-05
5.68098e-05
5.75304e-05
5.84351e-05
5.94386e-05
6.03753e-05
6.09349e-05
6.06773e-05
5.92315e-05
5.68258e-05
5.3768e-05
5.06324e-05
2.93747e-05
6.96767e-05
8.14249e-05
5.59148e-05
5.05921e-05
4.46952e-05
4.03323e-05
3.79505e-05
3.65503e-05
3.56089e-05
3.48584e-05
3.41383e-05
3.34978e-05
3.29772e-05
3.2593e-05
3.23426e-05
3.22203e-05
3.22221e-05
3.23475e-05
3.26001e-05
3.29868e-05
3.35079e-05
3.41454e-05
3.4861e-05
3.56062e-05
3.65126e-05
3.79555e-05
4.03946e-05
4.47494e-05
5.04271e-05
5.52563e-05
8.11226e-05
7.8459e-05
5.93206e-05
4.87174e-05
3.70834e-05
3.03656e-05
2.72002e-05
2.6059e-05
2.56442e-05
2.54354e-05
2.51713e-05
2.4944e-05
2.47743e-05
2.46605e-05
2.45901e-05
2.45525e-05
2.4542e-05
2.45587e-05
2.46089e-05
2.47063e-05
2.48634e-05
2.50887e-05
2.5373e-05
2.56379e-05
2.60935e-05
2.73058e-05
3.06232e-05
3.72358e-05
4.85502e-05
5.88323e-05
7.8366e-05
7.7269e-05
5.76876e-05
4.36205e-05
3.16773e-05
2.57025e-05
2.33676e-05
2.24987e-05
2.22965e-05
2.23257e-05
2.23911e-05
2.24517e-05
2.25081e-05
2.25678e-05
2.26154e-05
2.26357e-05
2.26229e-05
2.25786e-05
2.25131e-05
2.24503e-05
2.23941e-05
2.23483e-05
2.23193e-05
2.23495e-05
2.26206e-05
2.3546e-05
2.5842e-05
3.17954e-05
4.34818e-05
5.73687e-05
7.73362e-05
7.65364e-05
5.63073e-05
3.83795e-05
2.80096e-05
2.36845e-05
2.20961e-05
2.18287e-05
2.19615e-05
2.21892e-05
2.24038e-05
2.25775e-05
2.27128e-05
2.28169e-05
2.28873e-05
2.29189e-05
2.2909e-05
2.28596e-05
2.27775e-05
2.26721e-05
2.2546e-05
2.23975e-05
2.22263e-05
2.20563e-05
2.19788e-05
2.22534e-05
2.38163e-05
2.80421e-05
3.82664e-05
5.61471e-05
7.66879e-05
7.59828e-05
5.43772e-05
3.4436e-05
2.58254e-05
2.25819e-05
2.18644e-05
2.20303e-05
2.23773e-05
2.27094e-05
2.29834e-05
2.31956e-05
2.33535e-05
2.34662e-05
2.35382e-05
2.35708e-05
2.35646e-05
2.35214e-05
2.3444e-05
2.33343e-05
2.31895e-05
2.30019e-05
2.27622e-05
2.24681e-05
2.21493e-05
2.19818e-05
2.26539e-05
2.58259e-05
3.44183e-05
5.4337e-05
7.61236e-05
7.55055e-05
5.21394e-05
3.19988e-05
2.44958e-05
2.20755e-05
2.19549e-05
2.23909e-05
2.28698e-05
2.32702e-05
2.35781e-05
2.3805e-05
2.39666e-05
2.40767e-05
2.41445e-05
2.41752e-05
2.41717e-05
2.41355e-05
2.40662e-05
2.39608e-05
2.38109e-05
2.36025e-05
2.33168e-05
2.29361e-05
2.24642e-05
2.2011e-05
2.20875e-05
2.44581e-05
3.19938e-05
5.21275e-05
7.56462e-05
7.49374e-05
4.99109e-05
3.03645e-05
2.36215e-05
2.18966e-05
2.21515e-05
2.27435e-05
2.32962e-05
2.37347e-05
2.40599e-05
2.42912e-05
2.44499e-05
2.45538e-05
2.46156e-05
2.46435e-05
2.46417e-05
2.46113e-05
2.45497e-05
2.44501e-05
2.42998e-05
2.408e-05
2.37661e-05
2.33338e-05
2.27755e-05
2.216e-05
2.18708e-05
2.35716e-05
3.03629e-05
4.9923e-05
7.50621e-05
7.4468e-05
4.79446e-05
2.9268e-05
2.31744e-05
2.19814e-05
2.24059e-05
2.30627e-05
2.36437e-05
2.4094e-05
2.44213e-05
2.46483e-05
2.47994e-05
2.48948e-05
2.49499e-05
2.49745e-05
2.49736e-05
2.4948e-05
2.48935e-05
2.48009e-05
2.46547e-05
2.44332e-05
2.41097e-05
2.36578e-05
2.30664e-05
2.23888e-05
2.19393e-05
2.31286e-05
2.92683e-05
4.79742e-05
7.45709e-05
7.40994e-05
4.63347e-05
2.85214e-05
2.29635e-05
2.2151e-05
2.26634e-05
2.33392e-05
2.39198e-05
2.43634e-05
2.4681e-05
2.48971e-05
2.50372e-05
2.5123e-05
2.51711e-05
2.51921e-05
2.51916e-05
2.517e-05
2.51223e-05
2.50378e-05
2.48998e-05
2.46852e-05
2.4367e-05
2.39187e-05
2.33278e-05
2.2637e-05
2.21108e-05
2.29294e-05
2.85236e-05
4.63748e-05
7.41831e-05
7.38207e-05
4.51009e-05
2.80113e-05
2.28698e-05
2.23249e-05
2.28889e-05
2.35649e-05
2.41321e-05
2.45596e-05
2.48614e-05
2.50631e-05
2.51908e-05
2.52668e-05
2.5308e-05
2.53257e-05
2.53253e-05
2.53071e-05
2.52657e-05
2.51899e-05
2.50623e-05
2.48598e-05
2.45555e-05
2.41228e-05
2.35475e-05
2.28624e-05
2.2293e-05
2.28484e-05
2.80169e-05
4.51457e-05
7.38894e-05
7.36212e-05
4.42218e-05
2.76796e-05
2.28332e-05
2.24695e-05
2.30653e-05
2.37352e-05
2.42862e-05
2.46958e-05
2.4981e-05
2.51684e-05
2.52846e-05
2.53519e-05
2.53873e-05
2.5402e-05
2.54017e-05
2.53862e-05
2.53502e-05
2.52823e-05
2.51652e-05
2.49759e-05
2.46877e-05
2.42735e-05
2.3717e-05
2.30422e-05
2.24462e-05
2.28219e-05
2.76885e-05
4.42659e-05
7.36785e-05
7.34922e-05
4.36635e-05
2.74842e-05
2.28222e-05
2.25705e-05
2.31851e-05
2.38489e-05
2.43865e-05
2.47817e-05
2.50536e-05
2.52299e-05
2.53372e-05
2.5398e-05
2.54292e-05
2.54418e-05
2.54414e-05
2.5428e-05
2.53959e-05
2.53341e-05
2.52253e-05
2.50469e-05
2.47719e-05
2.43731e-05
2.38317e-05
2.31657e-05
2.25533e-05
2.28166e-05
2.74937e-05
4.37014e-05
7.35408e-05
7.34291e-05
4.34044e-05
2.73965e-05
2.28215e-05
2.26224e-05
2.32458e-05
2.3906e-05
2.44363e-05
2.48235e-05
2.50882e-05
2.52583e-05
2.53608e-05
2.54182e-05
2.54471e-05
2.54587e-05
2.54583e-05
2.54459e-05
2.5416e-05
2.53575e-05
2.52533e-05
2.5081e-05
2.48135e-05
2.44231e-05
2.38899e-05
2.32285e-05
2.26081e-05
2.28175e-05
2.74031e-05
4.34251e-05
7.34715e-05
7.34263e-05
4.34043e-05
2.73968e-05
2.28221e-05
2.26232e-05
2.32466e-05
2.39068e-05
2.44371e-05
2.48243e-05
2.5089e-05
2.52591e-05
2.53615e-05
2.54188e-05
2.54477e-05
2.54593e-05
2.5459e-05
2.54466e-05
2.54168e-05
2.53585e-05
2.52545e-05
2.50823e-05
2.48149e-05
2.44245e-05
2.38913e-05
2.32298e-05
2.2609e-05
2.28176e-05
2.74025e-05
4.34223e-05
7.34685e-05
7.34834e-05
4.36593e-05
2.74844e-05
2.28237e-05
2.25726e-05
2.31874e-05
2.38514e-05
2.43891e-05
2.47842e-05
2.5056e-05
2.52321e-05
2.53392e-05
2.53998e-05
2.5431e-05
2.54437e-05
2.54434e-05
2.54302e-05
2.53985e-05
2.5337e-05
2.52287e-05
2.50507e-05
2.47761e-05
2.43775e-05
2.3836e-05
2.31696e-05
2.25561e-05
2.28172e-05
2.74919e-05
4.3693e-05
7.35315e-05
7.36067e-05
4.42141e-05
2.76797e-05
2.28354e-05
2.24728e-05
2.30691e-05
2.37395e-05
2.42906e-05
2.47001e-05
2.49851e-05
2.51721e-05
2.52879e-05
2.53549e-05
2.53902e-05
2.5405e-05
2.54049e-05
2.53899e-05
2.53544e-05
2.52872e-05
2.51708e-05
2.49823e-05
2.46947e-05
2.4281e-05
2.37246e-05
2.30492e-05
2.24516e-05
2.28236e-05
2.7686e-05
4.4252e-05
7.3662e-05
7.38013e-05
4.50894e-05
2.80114e-05
2.28726e-05
2.23294e-05
2.28944e-05
2.35711e-05
2.41386e-05
2.45659e-05
2.48672e-05
2.50683e-05
2.51954e-05
2.52709e-05
2.5312e-05
2.53297e-05
2.53297e-05
2.53121e-05
2.52715e-05
2.51966e-05
2.507e-05
2.48686e-05
2.45653e-05
2.41334e-05
2.35585e-05
2.2873e-05
2.23019e-05
2.28523e-05
2.80142e-05
4.51259e-05
7.38652e-05
7.40757e-05
4.63193e-05
2.85234e-05
2.29671e-05
2.21566e-05
2.26707e-05
2.33479e-05
2.39289e-05
2.43721e-05
2.46887e-05
2.49037e-05
2.50428e-05
2.5128e-05
2.51757e-05
2.51969e-05
2.5197e-05
2.51762e-05
2.51295e-05
2.50462e-05
2.49094e-05
2.46963e-05
2.43794e-05
2.39322e-05
2.33421e-05
2.26514e-05
2.2124e-05
2.29372e-05
2.85221e-05
4.63489e-05
7.41503e-05
7.44414e-05
4.79251e-05
2.92709e-05
2.31776e-05
2.19879e-05
2.24155e-05
2.30744e-05
2.36557e-05
2.41051e-05
2.44307e-05
2.4656e-05
2.48057e-05
2.49003e-05
2.4955e-05
2.49799e-05
2.49797e-05
2.49551e-05
2.49019e-05
2.48107e-05
2.4666e-05
2.4446e-05
2.41241e-05
2.36736e-05
2.30833e-05
2.24061e-05
2.1956e-05
2.31409e-05
2.92711e-05
4.79431e-05
7.4529e-05
7.49098e-05
4.98869e-05
3.03678e-05
2.36238e-05
2.19043e-05
2.21643e-05
2.2759e-05
2.33115e-05
2.37481e-05
2.40706e-05
2.42995e-05
2.44563e-05
2.45591e-05
2.46207e-05
2.46491e-05
2.46484e-05
2.46192e-05
2.45591e-05