/*--------------------------------*- C++ -*----------------------------------*\
| =========                 |                                                 |
| \\      /  F ield         | OpenFOAM: The Open Source CFD Toolbox           |
|  \\    /   O peration     | Version:  2312                                  |
|   \\  /    A nd           | Website:  www.openfoam.com                      |
|    \\/     M anipulation  |                                                 |
\*---------------------------------------------------------------------------*/
FoamFile
{
    version     2.0;
    format      ascii;
    arch        "LSB;label=32;scalar=64";
    class       volScalarField;
    location    "600";
    object      nut;
}
// * * * * * * * * * * * * * * * * * * * * * * * * * * * * * * * * * * * * * //

dimensions      [0 2 -1 0 0 0 0];

internalField   nonuniform List<scalar> 
27000
(
3.94727e-06
6.69917e-06
9.35899e-06
1.1742e-05
1.40581e-05
1.62189e-05
1.81795e-05
1.98347e-05
2.12576e-05
2.24732e-05
2.3482e-05
2.42772e-05
2.48697e-05
2.52638e-05
2.54613e-05
2.54629e-05
2.52686e-05
2.48774e-05
2.42872e-05
2.34917e-05
2.24839e-05
2.12691e-05
1.98461e-05
1.81903e-05
1.62279e-05
1.40643e-05
1.17445e-05
9.358e-06
6.69637e-06
3.94524e-06
5.74674e-06
1.27802e-06
5.15702e-06
9.07537e-06
1.31544e-05
1.70302e-05
2.06893e-05
2.4091e-05
2.71698e-05
2.99024e-05
3.22605e-05
3.4227e-05
3.57504e-05
3.67868e-05
3.73091e-05
3.73045e-05
3.67737e-05
3.5731e-05
3.42057e-05
3.22432e-05
2.98871e-05
2.71562e-05
2.40791e-05
2.06801e-05
1.70232e-05
1.31492e-05
9.07337e-06
5.15514e-06
1.27646e-06
5.74397e-06
9.22215e-06
7.11816e-06
1.45705e-05
2.62033e-05
3.69021e-05
4.62715e-05
5.48339e-05
6.28405e-05
7.01063e-05
7.64978e-05
8.19388e-05
8.63992e-05
8.98224e-05
9.21362e-05
9.32959e-05
9.32822e-05
9.20984e-05
8.97706e-05
8.63533e-05
8.19122e-05
7.64889e-05
7.01134e-05
6.28596e-05
5.48569e-05
4.62919e-05
3.69134e-05
2.62286e-05
1.45963e-05
7.10948e-06
9.2204e-06
1.21558e-05
1.08357e-05
2.6188e-05
5.27992e-05
7.83065e-05
9.64086e-05
0.000109952
0.000121031
0.000130321
0.000138
0.000144274
0.000149239
0.000152949
0.000155418
0.000156646
0.000156637
0.000155394
0.000152925
0.000149232
0.000144297
0.00013805
0.000130396
0.000121116
0.000110016
9.64303e-05
7.83138e-05
5.28601e-05
2.62464e-05
1.08335e-05
1.21567e-05
1.49267e-05
1.4476e-05
3.70344e-05
7.64493e-05
0.000113438
0.000139236
0.000156096
0.00016797
0.000176839
0.000183238
0.000188223
0.000192046
0.000194833
0.000196659
0.000197561
0.000197559
0.000196655
0.000194836
0.000192065
0.000188258
0.000183262
0.000176883
0.000168036
0.000156141
0.000139253
0.000113466
7.65436e-05
3.71014e-05
1.44753e-05
1.49308e-05
1.74921e-05
1.84157e-05
4.78758e-05
9.55649e-05
0.000138109
0.000167491
0.000185555
0.000196922
0.000204423
0.000209474
0.000213001
0.000215511
0.000217256
0.000218367
0.000218909
0.000218908
0.000218368
0.000217264
0.000215531
0.000213035
0.000209519
0.000204481
0.000196986
0.000185619
0.000167592
0.000138206
9.56886e-05
4.79437e-05
1.84143e-05
1.74987e-05
1.98277e-05
2.25517e-05
5.87095e-05
0.000111811
0.000156052
0.000185348
0.00020301
0.000213335
0.000219456
0.000223167
0.000225482
0.000226963
0.000227913
0.000228485
0.000228755
0.000228755
0.000228486
0.000227919
0.000226981
0.000225513
0.000223213
0.000219513
0.000213399
0.000203083
0.000185444
0.000156167
0.000111928
5.87505e-05
2.25454e-05
1.98359e-05
2.19171e-05
2.6739e-05
6.92023e-05
0.000125818
0.000170065
0.000197539
0.000213516
0.00022238
0.000227198
0.000229802
0.000231212
0.000231983
0.000232408
0.000232634
0.000232732
0.000232732
0.000232635
0.000232414
0.000232
0.000231242
0.000229844
0.000227252
0.000222442
0.000213588
0.000197622
0.000170145
0.000125895
6.92148e-05
2.67266e-05
2.19275e-05
2.37298e-05
3.08571e-05
7.9006e-05
0.000137793
0.000181069
0.000206186
0.000220099
0.000227395
0.000231044
0.00023278
0.000233555
0.000233869
0.000233977
0.000234003
0.000234006
0.000234006
0.000234006
0.000233984
0.000233884
0.000233581
0.000232817
0.00023109
0.000227446
0.000220154
0.000206237
0.00018109
0.00013782
7.89882e-05
3.08396e-05
2.37406e-05
2.52817e-05
3.47454e-05
8.79045e-05
0.000147835
0.000188904
0.000212181
0.000224286
0.000230205
0.000232894
0.000233983
0.00023433
0.000234368
0.000234302
0.000234227
0.000234183
0.000234184
0.00023423
0.000234309
0.000234381
0.000234352
0.000234011
0.000232927
0.000230241
0.000224321
0.000212211
0.00018892
0.000147824
8.78628e-05
3.47249e-05
2.52917e-05
2.65744e-05
3.82478e-05
9.56799e-05
0.000156242
0.000195382
0.000216569
0.00022704
0.000231814
0.000233756
0.000234383
0.000234457
0.000234339
0.000234189
0.000234071
0.000234009
0.00023401
0.000234073
0.000234194
0.000234348
0.000234471
0.0002344
0.000233775
0.000231832
0.000227054
0.000216574
0.00019537
0.000156199
9.56201e-05
3.82255e-05
2.65831e-05
2.76078e-05
4.12279e-05
0.000102117
0.000162956
0.000200422
0.000219798
0.000228898
0.000232762
0.000234147
0.000234457
0.000234362
0.000234163
0.00023398
0.000233852
0.000233788
0.000233788
0.000233853
0.000233983
0.000234168
0.000234368
0.000234463
0.000234152
0.000232762
0.000228892
0.00021978
0.000200386
0.000162892
0.000102047
4.1205e-05
2.76154e-05
2.83822e-05
4.35705e-05
0.000107067
0.000167994
0.000204099
0.00022207
0.000230131
0.000233326
0.00023432
0.000234423
0.00023423
0.000233994
0.000233803
0.000233678
0.000233618
0.000233618
0.000233678
0.000233803
0.000233993
0.000234228
0.000234419
0.000234313
0.000233313
0.00023011
0.000222037
0.000204047
0.000167919
0.000106992
4.35477e-05
2.83889e-05
2.88982e-05
4.51846e-05
0.000110426
0.000171389
0.000206505
0.000223518
0.000230886
0.000233647
0.000234395
0.000234373
0.000234127
0.000233877
0.000233688
0.000233571
0.000233515
0.000233515
0.000233569
0.000233686
0.000233873
0.000234121
0.000234363
0.00023438
0.000233625
0.000230856
0.000223476
0.000206448
0.000171314
0.000110351
4.51624e-05
2.89042e-05
2.91559e-05
4.60075e-05
0.000112121
0.000173086
0.000207693
0.000224221
0.000231245
0.000233792
0.000234422
0.000234342
0.000234074
0.000233819
0.000233634
0.000233521
0.000233469
0.000233468
0.000233519
0.000233631
0.000233814
0.000234066
0.000234329
0.000234404
0.000233767
0.000231212
0.000224177
0.000207635
0.000173014
0.000112048
4.5986e-05
2.91616e-05
2.91555e-05
4.60078e-05
0.000112122
0.000173086
0.000207692
0.00022422
0.000231244
0.000233792
0.000234422
0.000234342
0.000234074
0.00023382
0.000233635
0.000233522
0.00023347
0.000233469
0.00023352
0.000233632
0.000233815
0.000234066
0.00023433
0.000234404
0.000233768
0.000231212
0.000224177
0.000207635
0.000173016
0.00011205
4.59865e-05
2.91612e-05
2.8897e-05
4.51854e-05
0.000110429
0.00017139
0.000206504
0.000223515
0.000230884
0.000233645
0.000234394
0.000234373
0.000234128
0.000233877
0.000233689
0.000233572
0.000233517
0.000233517
0.000233571
0.000233688
0.000233875
0.000234123
0.000234365
0.000234381
0.000233626
0.000230857
0.000223477
0.00020645
0.000171319
0.000110358
4.51637e-05
2.8903e-05
2.83803e-05
4.35717e-05
0.000107072
0.000167997
0.000204097
0.000222067
0.000230128
0.000233324
0.000234319
0.000234422
0.00023423
0.000233994
0.000233804
0.000233679
0.00023362
0.00023362
0.00023368
0.000233805
0.000233996
0.000234231
0.000234421
0.000234314
0.000233313
0.000230109
0.000222037
0.00020405
0.000167927
0.000107003
4.35495e-05
2.83868e-05
2.76052e-05
4.12295e-05
0.000102125
0.000162961
0.000200422
0.000219794
0.000228894
0.000232758
0.000234145
0.000234455
0.000234361
0.000234162
0.000233979
0.000233851
0.000233788
0.000233788
0.000233854
0.000233984
0.000234169
0.000234369
0.000234463
0.000234151
0.000232761
0.00022889
0.000219779
0.00020039
0.000162903
0.000102061
4.12072e-05
2.76125e-05
2.65715e-05
3.82494e-05
9.56909e-05
0.00015625
0.000195384
0.000216566
0.000227036
0.000231809
0.000233752
0.000234379
0.000234454
0.000234335
0.000234184
0.000234067
0.000234006
0.000234007
0.000234071
0.000234192
0.000234347
0.00023447
0.000234398
0.000233771
0.000231827
0.000227049
0.000216571
0.000195374
0.000156213
9.56371e-05
3.82278e-05
2.65796e-05
2.52787e-05
3.4747e-05
8.79189e-05
0.000147849
0.00018891
0.00021218
0.000224282
0.0002302
0.000232888
0.000233977
0.000234323
0.000234359
0.000234293
0.000234218
0.000234174
0.000234175
0.000234223
0.000234302
0.000234375
0.000234346
0.000234005
0.00023292
0.000230233
0.000224314
0.000212207
0.000188924
0.000147839
8.7881e-05
3.4727e-05
2.52875e-05
2.37268e-05
3.08584e-05
7.90232e-05
0.000137814
0.000181076
0.000206189
0.000220098
0.000227391
0.000231038
0.000232771
0.000233543
0.000233855
0.000233962
0.000233988
0.00023399
0.000233992
0.000233993
0.000233972
0.000233874
0.000233571
0.000232808
0.000231081
0.000227438
0.000220147
0.000206235
0.000181097
0.000137836
7.90054e-05
3.08408e-05
2.3736e-05
2.19144e-05
2.67395e-05
6.92216e-05
0.000125847
0.000170085
0.000197552
0.000213522
0.00022238
0.000227193
0.000229791
0.000231197
0.000231965
0.000232387
0.000232612
0.000232711
0.000232713
0.000232617
0.000232399
0.000231987
0.00023123
0.000229835
0.000227244
0.000222437
0.000213586
0.000197625
0.000170156
0.000125912
6.92297e-05
2.67261e-05
2.19233e-05
1.98256e-05
2.25514e-05
5.87316e-05
0.000111851
0.000156087
0.000185373
0.000203024
0.000213342
0.000219454
0.000223157
0.000225465
0.000226943
0.00022789
0.000228461
0.000228731
0.000228733
0.000228466
0.000227903
0.000226968
0.000225504
0.000223208
0.000219513
0.000213405
0.000203095
0.000185461
0.000156189
0.000111953
5.87663e-05
2.25441e-05
1.98319e-05
1.74902e-05
1.84165e-05
4.79046e-05
9.56118e-05
0.000138153
0.000167525
0.000185582
0.000196939
0.000204426
0.000209464
0.000212987
0.000215494
0.000217236
0.000218346
0.000218887
0.000218889
0.000218353
0.000217254
0.000215526
0.000213036
0.000209524
0.000204494
0.000197009
0.000185653
0.000167628
0.000138249
9.57248e-05
4.79656e-05
1.84145e-05
1.7495e-05
1.49249e-05
1.44754e-05
3.70591e-05
7.64958e-05
0.000113487
0.000139281
0.000156136
0.000167993
0.000176843
0.000183219
0.00018822
0.000192041
0.000194824
0.000196647
0.00019755
0.00019755
0.000196651
0.00019484
0.000192075
0.000188275
0.000183285
0.00017691
0.000168074
0.000156201
0.000139325
0.000113538
7.65922e-05
3.71214e-05
1.44742e-05
1.49275e-05
1.21541e-05
1.08339e-05
2.6206e-05
5.28374e-05
7.83503e-05
9.64567e-05
0.000110003
0.000121077
0.000130357
0.000138025
0.000144292
0.000149249
0.000152952
0.000155419
0.000156649
0.000156643
0.000155406
0.000152945
0.00014926
0.000144331
0.000138091
0.000130444
0.000121175
0.000110086
9.65084e-05
7.83891e-05
5.29117e-05
2.62621e-05
1.08314e-05
1.2154e-05
9.22079e-06
7.11597e-06
1.45754e-05
2.6218e-05
3.69228e-05
4.62982e-05
5.48588e-05
6.28648e-05
7.01279e-05
7.65156e-05
8.19527e-05
8.64079e-05
8.98277e-05
9.21422e-05
9.33046e-05
9.32948e-05
9.21155e-05
8.97932e-05
8.6382e-05
8.19425e-05
7.65205e-05
7.01464e-05
6.28948e-05
5.48942e-05
4.63337e-05
3.69499e-05
2.62517e-05
1.46001e-05
7.10838e-06
9.21872e-06
5.74568e-06
1.27758e-06
5.15544e-06
9.07392e-06
1.31535e-05
1.703e-05
2.06892e-05
2.40904e-05
2.7169e-05
2.99014e-05
3.22597e-05
3.42267e-05
3.57507e-05
3.67879e-05
3.73112e-05
3.73076e-05
3.67778e-05
3.57358e-05
3.42105e-05
3.22463e-05
2.98898e-05
2.71585e-05
2.40815e-05
2.06831e-05
1.70258e-05
1.31502e-05
9.07233e-06
5.1529e-06
1.27608e-06
5.74297e-06
3.94667e-06
6.69817e-06
9.35796e-06
1.17412e-05
1.40574e-05
1.62183e-05
1.81789e-05
1.98339e-05
2.12567e-05
2.2472e-05
2.34805e-05
2.42749e-05
2.48668e-05
2.52606e-05
2.54578e-05
2.5459e-05
2.52644e-05
2.48729e-05
2.42828e-05
2.3488e-05
2.24803e-05
2.12654e-05
1.98425e-05
1.81868e-05
1.62248e-05
1.40616e-05
1.17425e-05
9.35654e-06
6.69545e-06
3.94475e-06
3.57395e-06
6.10871e-06
8.70892e-06
1.10709e-05
1.34316e-05
1.56643e-05
1.77252e-05
1.95018e-05
2.10408e-05
2.23637e-05
2.34721e-05
2.43802e-05
2.50669e-05
2.55255e-05
2.57541e-05
2.57521e-05
2.55193e-05
2.50566e-05
2.43666e-05
2.346e-05
2.23494e-05
2.10237e-05
1.94768e-05
1.77007e-05
1.56443e-05
1.34189e-05
1.10675e-05
8.714e-06
6.11834e-06
3.58057e-06
5.14028e-06
1.63638e-06
7.50472e-06
1.11012e-05
1.469e-05
1.76944e-05
2.02485e-05
2.26286e-05
2.47213e-05
2.65233e-05
2.80353e-05
2.92336e-05
3.01283e-05
3.07273e-05
3.10301e-05
3.10353e-05
3.07419e-05
3.01495e-05
2.9255e-05
2.80497e-05
2.65334e-05
2.4731e-05
2.26433e-05
2.02764e-05
1.7729e-05
1.47268e-05
1.1136e-05
7.52973e-06
1.65029e-06
5.15121e-06
8.7062e-06
1.03572e-05
1.32319e-05
1.66532e-05
2.17987e-05
2.72163e-05
3.22334e-05
3.66387e-05
4.06846e-05
4.43392e-05
4.74876e-05
5.0017e-05
5.18858e-05
5.31412e-05
5.37845e-05
5.38108e-05
5.32174e-05
5.19991e-05
5.01136e-05
4.75493e-05
4.43805e-05
4.07098e-05
3.66461e-05
3.22251e-05
2.71959e-05
2.17852e-05
1.66376e-05
1.32318e-05
1.04404e-05
8.7158e-06
1.15769e-05
1.35478e-05
1.78532e-05
2.55034e-05
3.55494e-05
4.61665e-05
5.56997e-05
6.40869e-05
7.15571e-05
7.83671e-05
8.41771e-05
8.88297e-05
9.22715e-05
9.45515e-05
9.5714e-05
9.57773e-05
9.47342e-05
9.25487e-05
8.91543e-05
8.45083e-05
7.86631e-05
7.17567e-05
6.4126e-05
5.56168e-05
4.60069e-05
3.53699e-05
2.5416e-05
1.78295e-05
1.36151e-05
1.15785e-05
1.44173e-05
1.60037e-05
2.264e-05
3.55556e-05
5.37973e-05
7.28848e-05
8.9078e-05
0.000101976
0.000112502
0.000121611
0.000129009
0.000134752
0.000138838
0.000141457
0.000142756
0.000142796
0.00014157
0.000139007
0.00013497
0.000129246
0.00012181
0.00011256
0.000101835
8.87357e-05
7.24511e-05
5.34871e-05
3.53656e-05
2.25726e-05
1.60598e-05
1.44096e-05
1.7125e-05
1.81944e-05
2.84031e-05
4.6699e-05
7.26029e-05
9.90159e-05
0.000121291
0.00013758
0.000149383
0.000158451
0.000165477
0.000170772
0.000174519
0.000176901
0.000178067
0.000178089
0.000176964
0.000174607
0.000170867
0.000165547
0.000158453
0.000149283
0.000137361
0.000120897
9.85414e-05
7.21945e-05
4.65173e-05
2.83238e-05
1.82352e-05
1.71109e-05
1.96373e-05
2.05451e-05
3.38252e-05
5.80905e-05
9.03594e-05
0.000121684
0.000146263
0.000163736
0.000175871
0.000184464
0.000190676
0.000195142
0.000198224
0.000200155
0.000201089
0.000201101
0.000200185
0.00019826
0.000195166
0.000190666
0.000184405
0.000175754
0.000163556
0.000146001
0.000121328
9.00838e-05
5.80063e-05
3.37863e-05
2.05496e-05
1.96248e-05
2.19346e-05
2.30283e-05
3.89785e-05
6.89439e-05
0.00010583
0.000139376
0.000164402
0.000181822
0.000193556
0.000201432
0.000206771
0.000210396
0.000212795
0.000214259
0.000214955
0.00021496
0.00021427
0.000212803
0.000210387
0.000206734
0.000201362
0.000193454
0.000181687
0.000164231
0.000139195
0.000105751
6.89928e-05
3.89655e-05
2.30333e-05
2.19197e-05
2.40376e-05
2.53477e-05
4.39106e-05
7.90417e-05
0.000119095
0.000153051
0.000177568
0.00019419
0.000205064
0.000212058
0.000216542
0.000219411
0.000221213
0.000222269
0.000222759
0.00022276
0.00022227
0.000221206
0.000219389
0.0002165
0.000211994
0.000204981
0.000194095
0.00017747
0.000152988
0.000119158
7.9177e-05
4.39235e-05
2.53582e-05
2.40228e-05
2.58824e-05
2.74347e-05
4.83774e-05
8.7773e-05
0.000130299
0.000163751
0.00018721
0.000202686
0.000212501
0.000218567
0.000222257
0.000224477
0.000225788
0.000226518
0.000226844
0.000226843
0.000226514
0.000225776
0.000224454
0.00022222
0.000218517
0.000212444
0.000202627
0.000187162
0.000163739
0.000130366
8.79328e-05
4.84121e-05
2.74506e-05
2.587e-05
2.74464e-05
2.9254e-05
5.22619e-05
9.49393e-05
0.000138722
0.000171819
0.000194215
0.000208527
0.000217301
0.000222501
0.0002255
0.000227188
0.000228115
0.000228596
0.0002288
0.000228799
0.000228591
0.000228105
0.000227171
0.000225475
0.000222471
0.00021727
0.000208502
0.000194206
0.000171845
0.000138811
9.50949e-05
5.23131e-05
2.92745e-05
2.74363e-05
2.87144e-05
3.07676e-05
5.54975e-05
0.000100646
0.000145106
0.000177755
0.000199207
0.000212502
0.000220377
0.000224851
0.000227291
0.000228568
0.000229208
0.000229509
0.000229626
0.000229625
0.000229506
0.000229203
0.00022856
0.00022728
0.000224841
0.000220373
0.000212509
0.000199231
0.000177809
0.000145204
0.000100778
5.55565e-05
3.07909e-05
2.87062e-05
2.96747e-05
3.19396e-05
5.80073e-05
0.000104956
0.000149765
0.000181959
0.000202636
0.000215128
0.000222304
0.000226224
0.00022825
0.000229232
0.000229672
0.00022985
0.00022991
0.00022991
0.00022985
0.000229672
0.000229233
0.000228253
0.000226233
0.000222321
0.000215157
0.000202682
0.000182028
0.00014986
0.000105058
5.80659e-05
3.19638e-05
2.9668e-05
3.03193e-05
3.27399e-05
5.97268e-05
0.000107891
0.000152847
0.000184669
0.00020479
0.000216727
0.000223429
0.00022698
0.000228735
0.000229527
0.000229843
0.000229946
0.000229971
0.000229972
0.000229949
0.000229847
0.000229535
0.000228748
0.000227001
0.00022346
0.00021677
0.000204848
0.000184742
0.000152934
0.000107974
5.97817e-05
3.27634e-05
3.03135e-05
3.06431e-05
3.31471e-05
6.0602e-05
0.00010937
0.000154383
0.000186001
0.000205832
0.000217485
0.000223948
0.000227314
0.000228935
0.000229636
0.000229892
0.00022996
0.000229969
0.00022997
0.000229964
0.000229898
0.000229647
0.000228953
0.00022734
0.000223984
0.000217533
0.000205893
0.000186074
0.000154464
0.000109441
6.06514e-05
3.31682e-05
3.06378e-05
3.06435e-05
3.31466e-05
6.06019e-05
0.00010937
0.000154385
0.000186003
0.000205834
0.000217486
0.000223948
0.000227313
0.000228934
0.000229634
0.000229889
0.000229957
0.000229966
0.000229967
0.000229961
0.000229895
0.000229645
0.000228951
0.000227338
0.000223983
0.000217532
0.000205893
0.000186074
0.000154463
0.000109439
6.06493e-05
3.31668e-05
3.06381e-05
3.03206e-05
3.27379e-05
5.97259e-05
0.000107891
0.000152852
0.000184675
0.000204795
0.000216729
0.000223429
0.000226977
0.000228731
0.000229522
0.000229836
0.000229939
0.000229964
0.000229964
0.000229941
0.000229839
0.000229528
0.000228741
0.000226995
0.000223456
0.000216768
0.000204847
0.000184742
0.000152932
0.000107969
5.97757e-05
3.27595e-05
3.03147e-05
2.96767e-05
3.19361e-05
5.80054e-05
0.000104956
0.000149773
0.000181969
0.000202644
0.000215132
0.000222304
0.000226221
0.000228244
0.000229224
0.000229663
0.000229841
0.0002299
0.000229899
0.000229839
0.000229661
0.000229222
0.000228244
0.000226226
0.000222317
0.000215156
0.000202683
0.000182028
0.000149857
0.000105049
5.80566e-05
3.19577e-05
2.96699e-05
2.8717e-05
3.07628e-05
5.54937e-05
0.000100646
0.000145115
0.000177767
0.000199217
0.000212508
0.000220378
0.000224848
0.000227285
0.000228561
0.0002292
0.0002295
0.000229616
0.000229615
0.000229495
0.000229192
0.00022855
0.000227272
0.000224836
0.000220372
0.000212511
0.000199236
0.000177812
0.0001452
0.000100764
5.55443e-05
3.0783e-05
2.8709e-05
2.74495e-05
2.9248e-05
5.22538e-05
9.49398e-05
0.000138731
0.000171831
0.000194225
0.000208534
0.000217303
0.000222501
0.000225497
0.000227185
0.000228111
0.000228592
0.000228795
0.000228792
0.000228584
0.000228098
0.000227165
0.000225471
0.000222471
0.000217275
0.000208511
0.000194216
0.000171851
0.000138806
9.50746e-05
5.2298e-05
2.92653e-05
2.744e-05
2.58857e-05
2.7428e-05
4.83657e-05
8.7774e-05
0.000130306
0.00016376
0.00018722
0.000202694
0.000212507
0.000218571
0.00022226
0.000224481
0.000225793
0.000226523
0.000226848
0.000226846
0.000226515
0.000225778
0.000224456
0.000222224
0.000218526
0.000212456
0.000202643
0.000187178
0.000163747
0.000130358
8.79066e-05
4.83937e-05
2.74409e-05
2.58746e-05
2.40408e-05
2.53406e-05
4.38959e-05
7.90424e-05
0.000119099
0.000153055
0.000177575
0.000194199
0.000205073
0.000212069
0.000216555
0.000219426
0.00022123
0.000222287
0.000222776
0.000222775
0.000222283
0.000221218
0.000219402
0.000216514
0.000212012
0.000205003
0.000194119
0.000177492
0.000152998
0.00011914
7.9149e-05
4.39058e-05
2.53493e-05
2.40282e-05
2.19377e-05
2.30223e-05
3.89624e-05
6.8941e-05
0.000105823
0.000139371
0.000164404
0.000181831
0.000193569
0.000201451
0.000206795
0.000210426
0.000212829
0.000214293
0.000214988
0.00021499
0.000214297
0.000212828
0.000210411
0.000206758
0.000201388
0.000193482
0.000181718
0.00016426
0.000139213
0.000105742
6.89719e-05
3.89501e-05
2.30269e-05
2.19244e-05
1.96393e-05
2.05427e-05
3.38071e-05
5.80764e-05
9.03404e-05
0.000121663
0.000146259
0.000163744
0.000175889
0.000184494
0.000190715
0.000195189
0.000198275
0.000200207
0.000201139
0.000201146
0.000200226
0.000198296
0.000195199
0.000190697
0.000184435
0.000175786
0.00016359
0.000146035
0.000121354
9.00945e-05
5.79958e-05
3.3771e-05
2.05473e-05
1.96296e-05
1.71284e-05
1.82113e-05
2.83724e-05
4.66798e-05
7.25826e-05
9.89968e-05
0.000121281
0.000137589
0.00014941
0.0001585
0.000165538
0.00017084
0.000174588
0.00017697
0.000178132
0.000178148
0.000177015
0.000174651
0.000170904
0.000165579
0.000158484
0.000149314
0.000137397
0.000120941
9.85906e-05
7.22313e-05
4.65187e-05
2.82987e-05
1.82523e-05
1.71185e-05
1.44212e-05
1.60204e-05
2.26198e-05
3.55464e-05
5.37896e-05
7.28829e-05
8.90915e-05
0.000102006
0.000112562
0.000121706
0.000129098
0.000134846
0.000138929
0.000141545
0.000142838
0.000142869
0.000141632
0.000139056
0.000135007
0.000129272
0.000121833
0.00011259
0.000101872
8.8794e-05
7.25134e-05
5.35241e-05
3.53831e-05
2.25576e-05
1.60735e-05
1.4417e-05
1.15811e-05
1.35651e-05
1.78592e-05
2.54979e-05
3.555e-05
4.61725e-05
5.57143e-05
6.41175e-05
7.16179e-05
7.84479e-05
8.42683e-05
8.89336e-05
9.2383e-05
9.46596e-05
9.58129e-05
9.58644e-05
9.48069e-05
9.26017e-05
8.91846e-05
8.45291e-05
7.86804e-05
7.17732e-05
6.41406e-05
5.56357e-05
4.60314e-05
3.53955e-05
2.54171e-05
1.78416e-05
1.36266e-05
1.15847e-05
8.71009e-06
1.03721e-05
1.32368e-05
1.66468e-05
2.17867e-05
2.71978e-05
3.22245e-05
3.66309e-05
4.06798e-05
4.4339e-05
4.74953e-05
5.00489e-05
5.19362e-05
5.3192e-05
5.38319e-05
5.38536e-05
5.3254e-05
5.20215e-05
5.01041e-05
4.75341e-05
4.43649e-05
4.0694e-05
3.66299e-05
3.22091e-05
2.71694e-05
2.17656e-05
1.66279e-05
1.32375e-05
1.0443e-05
8.71956e-06
5.14336e-06
1.63861e-06
7.51154e-06
1.11104e-05
1.47028e-05
1.7709e-05
2.02613e-05
2.26251e-05
2.47149e-05
2.65159e-05
2.80272e-05
2.92251e-05
3.01191e-05
3.07167e-05
3.10179e-05
3.10216e-05
3.0727e-05
3.01338e-05
2.92389e-05
2.80356e-05
2.65207e-05
2.47198e-05
2.26352e-05
2.02899e-05
1.77442e-05
1.47387e-05
1.11425e-05
7.53385e-06
1.65035e-06
5.15346e-06
3.57568e-06
6.11143e-06
8.71166e-06
1.10732e-05
1.34334e-05
1.56657e-05
1.77263e-05
1.95026e-05
2.10417e-05
2.23649e-05
2.34739e-05
2.43833e-05
2.50706e-05
2.55297e-05
2.57588e-05
2.57572e-05
2.55248e-05
2.50625e-05
2.43726e-05
2.34644e-05
2.23539e-05
2.10287e-05
1.94839e-05
1.77085e-05
1.56518e-05
1.34254e-05
1.10724e-05
8.71736e-06
6.12025e-06
3.58169e-06
3.35266e-06
5.70343e-06
8.22812e-06
1.05619e-05
1.29092e-05
1.51281e-05
1.71633e-05
1.89045e-05
2.04296e-05
2.17515e-05
2.28614e-05
2.37458e-05
2.44113e-05
2.48572e-05
2.50821e-05
2.5085e-05
2.48659e-05
2.44255e-05
2.37649e-05
2.28823e-05
2.17755e-05
2.04561e-05
1.8938e-05
1.71944e-05
1.51522e-05
1.29234e-05
1.05651e-05
8.22192e-06
5.69068e-06
3.34314e-06
4.85855e-06
2.46843e-06
1.0656e-05
1.58937e-05
2.09499e-05
2.54702e-05
2.93584e-05
3.23883e-05
3.4694e-05
3.64189e-05
3.77104e-05
3.8677e-05
3.93747e-05
3.98303e-05
4.00574e-05
4.00612e-05
3.98418e-05
3.93936e-05
3.87036e-05
3.7744e-05
3.64553e-05
3.47284e-05
3.24134e-05
2.93544e-05
2.54366e-05
2.08968e-05
1.58378e-05
1.06152e-05
2.41749e-06
4.84202e-06
8.26741e-06
1.28719e-05
1.72755e-05
2.11133e-05
2.41016e-05
2.7168e-05
3.02109e-05
3.3214e-05
3.60544e-05
3.84976e-05
4.05477e-05
4.22141e-05
4.34946e-05
4.43568e-05
4.4792e-05
4.47971e-05
4.43746e-05
4.35323e-05
4.2296e-05
4.06778e-05
3.86616e-05
3.62295e-05
3.33661e-05
3.02573e-05
2.71835e-05
2.41256e-05
2.11423e-05
1.72653e-05
1.2725e-05
8.25165e-06
1.10518e-05
1.80375e-05
2.32332e-05
2.49441e-05
2.87787e-05
3.46983e-05
4.15044e-05
4.78492e-05
5.32911e-05
5.76679e-05
6.13779e-05
6.4445e-05
6.68277e-05
6.84439e-05
6.924e-05
6.91953e-05
6.83147e-05
6.66307e-05
6.42124e-05
6.11358e-05
5.74587e-05
5.3167e-05
4.78694e-05
4.14816e-05
3.45695e-05
2.8844e-05
2.50025e-05
2.3201e-05
1.79197e-05
1.10449e-05
1.38002e-05
2.20191e-05
2.63646e-05
2.95848e-05
3.82348e-05
5.07597e-05
6.26145e-05
7.22268e-05
8.0032e-05
8.64748e-05
9.17604e-05
9.60359e-05
9.95527e-05
0.000102034
0.000103272
0.000103208
0.000101855
9.92957e-05
9.57515e-05
9.14459e-05
8.62598e-05
7.99853e-05
7.23468e-05
6.27358e-05
5.06414e-05
3.79875e-05
2.96244e-05
2.63473e-05
2.19258e-05
1.38061e-05
1.64344e-05
2.55159e-05
2.86327e-05
3.60207e-05
5.11622e-05
6.94901e-05
8.7255e-05
0.000101896
0.000113568
0.000122562
0.000129487
0.000134788
0.00013876
0.00014143
0.000142745
0.000142683
0.000141257
0.000138517
0.000134533
0.000129281
0.000122494
0.000113679
0.000102176
8.77043e-05
6.95546e-05
5.11508e-05
3.60471e-05
2.86416e-05
2.54641e-05
1.64508e-05
1.89097e-05
2.82497e-05
3.11616e-05
4.37525e-05
6.36392e-05
8.74964e-05
0.000110841
0.000129406
0.000143031
0.000152983
0.000160268
0.000165576
0.000169333
0.000171754
0.000172929
0.000172902
0.00017168
0.000169244
0.00016551
0.000160264
0.000153071
0.000143204
0.00012966
0.000111214
8.79e-05
6.38319e-05
4.38008e-05
3.1293e-05
2.82552e-05
1.89273e-05
2.11892e-05
3.0364e-05
3.4436e-05
5.09334e-05
7.49454e-05
0.000103864
0.000130352
0.000150414
0.000164821
0.000175011
0.000182175
0.000187166
0.000190542
0.00019264
0.000193642
0.000193633
0.000192619
0.000190528
0.00018718
0.000182235
0.000175123
0.000164977
0.000150618
0.000130592
0.000104071
7.49912e-05
5.08811e-05
3.4582e-05
3.0374e-05
2.12089e-05
2.3221e-05
3.20418e-05
3.77977e-05
5.71887e-05
8.48286e-05
0.000117899
0.000145504
0.000165874
0.000180257
0.000190199
0.000196976
0.000201524
0.000204482
0.000206259
0.000207091
0.00020709
0.00020626
0.000204497
0.000201562
0.000197044
0.000190297
0.000180378
0.000166011
0.000145633
0.000117924
8.47051e-05
5.70675e-05
3.79199e-05
3.20521e-05
2.32406e-05
2.50075e-05
3.34099e-05
4.10727e-05
6.31671e-05
9.47827e-05
0.000129646
0.000157197
0.000177167
0.00019105
0.000200459
0.000206706
0.000210763
0.000213309
0.000214789
0.000215467
0.000215469
0.000214797
0.000213329
0.0002108
0.000206761
0.000200529
0.000191129
0.000177245
0.000157248
0.000129618
9.46114e-05
6.30205e-05
4.11488e-05
3.34192e-05
2.50251e-05
2.65305e-05
3.45287e-05
4.40456e-05
6.84921e-05
0.000103424
0.00013883
0.000166019
0.000185324
0.000198517
0.000207283
0.000212961
0.000216538
0.000218706
0.000219925
0.000220471
0.000220473
0.000219932
0.000218721
0.000216562
0.000212994
0.000207322
0.000198553
0.000185348
0.000166009
0.000138748
0.000103235
6.83542e-05
4.40711e-05
3.45366e-05
2.65457e-05
2.77722e-05
3.5429e-05
4.65122e-05
7.29077e-05
0.000110354
0.000145834
0.000172497
0.0001911
0.000203595
0.000211737
0.000216886
0.000220036
0.000221884
0.000222888
0.000223326
0.000223327
0.000222891
0.00022189
0.000220046
0.000216897
0.000211745
0.000203593
0.000191077
0.000172439
0.000145721
0.000110179
7.28015e-05
4.65096e-05
3.54359e-05
2.77854e-05
2.87174e-05
3.61197e-05
4.84388e-05
7.62712e-05
0.000115513
0.000150905
0.000177051
0.000195034
0.000206933
0.00021455
0.000219265
0.000222074
0.000223672
0.000224512
0.000224869
0.000224869
0.000224511
0.00022367
0.00022207
0.000219256
0.000214533
0.0002069
0.00019498
0.000176966
0.000150783
0.000115368
7.62057e-05
4.84337e-05
3.61246e-05
2.87288e-05
2.93542e-05
3.65935e-05
4.97699e-05
7.84974e-05
0.000118912
0.000154202
0.000179956
0.000197485
0.000208953
0.000216196
0.000220605
0.000223179
0.000224606
0.000225337
0.00022564
0.000225639
0.000225333
0.000224598
0.000223166
0.000220584
0.000216163
0.000208903
0.000197414
0.000179861
0.000154085
0.000118796
7.84572e-05
4.97639e-05
3.65929e-05
2.93642e-05
2.96746e-05
3.68466e-05
5.04515e-05
7.96185e-05
0.0001206
0.000155827
0.000181373
0.000198664
0.000209907
0.000216956
0.000221208
0.000223662
0.000225003
0.000225679
0.000225955
0.000225953
0.000225674
0.000224992
0.000223644
0.000221181
0.000216916
0.00020985
0.000198587
0.000181277
0.000155717
0.0001205
7.959e-05
5.0444e-05
3.68298e-05
2.96835e-05
2.9674e-05
3.68477e-05
5.0452e-05
7.96202e-05
0.000120603
0.000155829
0.000181375
0.000198666
0.00020991
0.00021696
0.000221212
0.000223665
0.000225006
0.000225683
0.000225959
0.000225957
0.000225678
0.000224997
0.000223649
0.000221186
0.000216922
0.000209856
0.000198593
0.000181282
0.000155722
0.000120505
7.95908e-05
5.04444e-05
3.68294e-05
2.96829e-05
2.93525e-05
3.65928e-05
4.97708e-05
7.8502e-05
0.000118919
0.000154207
0.000179961
0.000197492
0.000208961
0.000216206
0.000220615
0.000223189
0.000224616
0.000225347
0.00022565
0.000225649
0.000225345
0.000224611
0.00022318
0.000220599
0.000216179
0.000208919
0.00019743
0.000179876
0.0001541
0.00011881
7.84606e-05
4.97652e-05
3.65917e-05
2.93623e-05
2.87146e-05
3.61181e-05
4.84407e-05
7.62779e-05
0.000115523
0.000150913
0.00017706
0.000195046
0.000206947
0.000214566
0.000219281
0.00022209
0.000223686
0.000224527
0.000224884
0.000224885
0.000224529
0.000223689
0.000222092
0.00021928
0.000214557
0.000206926
0.000195005
0.000176991
0.000150809
0.000115394
7.62139e-05
4.84362e-05
3.61222e-05
2.87257e-05
2.77686e-05
3.5427e-05
4.65171e-05
7.29169e-05
0.000110368
0.000145848
0.000172513
0.000191119
0.000203616
0.000211759
0.000216907
0.000220056
0.000221902
0.000222905
0.000223343
0.000223346
0.000222913
0.000221914
0.000220073
0.000216926
0.000211776
0.000203625
0.00019111
0.000172473
0.000145756
0.000110218
7.28178e-05
4.65144e-05
3.54324e-05
2.77809e-05
2.65264e-05
3.45271e-05
4.40697e-05
6.85071e-05
0.000103444
0.000138852
0.000166044
0.000185352
0.000198545
0.00020731
0.000212985
0.000216559
0.000218725
0.000219942
0.000220488
0.000220492
0.000219955
0.000218747
0.000216592
0.000213027
0.000207356
0.00019859
0.000185387
0.000166049
0.000138793
0.000103289
6.83844e-05
4.40819e-05
3.45327e-05
2.65399e-05
2.50032e-05
3.3409e-05
4.11086e-05
6.31822e-05
9.4807e-05
0.00012968
0.000157236
0.000177205
0.000191085
0.00020049
0.000206732
0.000210785
0.000213326
0.000214803
0.000215481
0.000215486
0.000214818
0.000213355
0.00021083
0.000206794
0.000200565
0.000191169
0.000177288
0.000157298
0.000129672
9.46744e-05
6.3065e-05
4.11814e-05
3.34158e-05
2.50181e-05
2.32169e-05
3.20426e-05
3.78429e-05
5.72023e-05
8.48617e-05
0.000117952
0.000145559
0.000165922
0.000180299
0.000190233
0.000197002
0.000201542
0.000204494
0.000206267
0.000207099
0.000207102
0.000206278
0.00020452
0.000201591