/*--------------------------------*- C++ -*----------------------------------*\
| =========                 |                                                 |
| \\      /  F ield         | OpenFOAM: The Open Source CFD Toolbox           |
|  \\    /   O peration     | Version:  2312                                  |
|   \\  /    A nd           | Website:  www.openfoam.com                      |
|    \\/     M anipulation  |                                                 |
\*---------------------------------------------------------------------------*/
FoamFile
{
    version     2.0;
    format      ascii;
    arch        "LSB;label=32;scalar=64";
    class       surfaceScalarField;
    location    "600";
    object      phi;
}
// * * * * * * * * * * * * * * * * * * * * * * * * * * * * * * * * * * * * * //

dimensions      [1 0 -1 0 0 0 0];

oriented        oriented;

internalField   nonuniform List<scalar> 
78300
(
-0.000104835
0.000314131
0.00755009
0.00264226
0.00132475
0.00976621
0.00254715
0.00472918
0.0150033
0.00278812
0.00527774
0.0196062
0.00300118
0.00587862
0.0241785
0.00314825
0.00639453
0.0285027
0.00320238
0.00685539
0.0325112
0.00314106
0.00724587
0.0361903
0.00294701
0.00756206
0.0395165
0.00262795
0.00780976
0.0424395
0.00220414
0.00799831
0.0449203
0.00169785
0.0081386
0.0469316
0.00113231
0.00823681
0.0484548
0.000529726
0.00829801
0.0494769
-8.88008e-05
0.0083261
0.0499894
-0.000702703
0.00832305
0.0499878
-0.00129129
0.00828875
0.0494722
-0.00183309
0.00822107
0.0484468
-0.00230548
0.00811611
0.0469202
-0.00268525
0.00796903
0.0449056
-0.00295071
0.00777351
0.0424222
-0.00308459
0.00752051
0.0394979
-0.00308502
0.0072038
0.0361714
-0.00297897
0.00682156
0.0324931
-0.00280155
0.00637937
0.0284875
-0.00259288
0.00589308
0.0241684
-0.00239049
0.00531986
0.0196027
-0.00255924
0.0048006
0.0150055
0.000124124
0.00138234
0.00977235
0.000325301
0.00755821
0.00329951
0.00431076
0.00972557
0.00549335
0.00409488
0.0179257
0.00641144
0.00736161
0.0249375
0.00652363
0.0082164
0.0307348
0.00644573
0.00874416
0.0359653
0.00625514
0.00914551
0.0408017
0.00597006
0.0094794
0.0452484
0.00557374
0.00976759
0.0492796
0.00504915
0.0100076
0.0528727
0.00439511
0.0101963
0.056002
0.00362644
0.0103365
0.0586413
0.00276737
0.0104354
0.060771
0.00184314
0.0105002
0.0623778
0.000878045
0.0105374
0.0634531
-0.000103979
0.0105512
0.0639908
-0.00107958
0.0105444
0.0639882
-0.00202554
0.0105168
0.0634452
-0.0029186
0.0104664
0.0623647
-0.00373535
0.010389
0.0607525
-0.0044528
0.0102793
0.0586179
-0.0050515
0.0101317
0.0559749
-0.00552358
0.00994212
0.0528442
-0.0058789
0.00971158
0.0492526
-0.00614383
0.00944696
0.0452269
-0.00634294
0.00915007
0.0407905
-0.00645906
0.00879416
0.035968
-0.00641185
0.00830687
0.0307515
-0.00554724
0.00746098
0.0249631
-0.00337478
0.00414568
0.0179539
0.00423651
0.00973572
0.00687238
0.00379316
0.0199118
0.00957604
0.00599928
0.0273187
0.0103417
0.00877125
0.0351519
0.00998448
0.00959714
0.0414141
0.00928506
0.00995708
0.0467161
0.00851469
0.0101704
0.0514217
0.00773027
0.0103366
0.0556799
0.00692427
0.0104899
0.0595197
0.00607515
0.0106306
0.0629318
0.00516739
0.01075
0.0658972
0.00419779
0.010842
0.0683967
0.00317329
0.0109064
0.0704139
0.00210651
0.0109465
0.0719365
0.00101302
0.0109665
0.0729552
-9.07865e-05
0.0109704
0.0734643
-0.00118807
0.0109605
0.0734608
-0.00226246
0.0109372
0.0729448
-0.00329878
0.0108991
0.0719195
-0.00428424
0.0108436
0.0703913
-0.00521029
0.010768
0.0683699
-0.00607599
0.0106721
0.0658685
-0.00689192
0.0105592
0.0629046
-0.00768102
0.010438
0.0594987
-0.00847026
0.0103179
0.0556709
-0.00926865
0.0101948
0.0514299
-0.0100124
0.0100246
0.0467429
-0.0104117
0.00968994
0.0414539
-0.00965838
0.00884563
0.0351892
-0.00692179
0.00599258
0.0273433
0.00366204
0.0199193
0.00699698
0.0042609
0.0279076
0.0101743
0.00679208
0.0368601
0.0110892
0.00923979
0.0446543
0.0108473
0.00997017
0.0508351
0.0101114
0.0102693
0.0560112
0.00920783
0.0104028
0.0605474
0.00825671
0.0104806
0.064615
0.00729152
0.0105484
0.0682674
0.00631251
0.0106169
0.0715073
0.0053113
0.0106813
0.0743215
0.00428126
0.0107344
0.0766941
0.00322173
0.0107721
0.0786102
0.00213728
0.010794
0.0800573
0.00103645
0.0108021
0.0810261
-6.99747e-05
0.010799
0.0815103
-0.00117067
0.0107868
0.0815068
-0.00225486
0.0107663
0.081016
-0.00331382
0.0107372
0.0800412
-0.00434229
0.0106987
0.0785896
-0.00534035
0.0106514
0.0766712
-0.00631467
0.0105983
0.0742997
-0.00727769
0.0105458
0.0714909
-0.00824262
0.010502
0.0682616
-0.00921056
0.0104691
0.0646246
-0.010145
0.01043
0.0605754
-0.0109151
0.0103273
0.056055
-0.0111777
0.0100358
0.0508828
-0.0102515
0.00926933
0.044688
-0.00703548
0.00673333
0.0368734
0.00409165
0.0279072
0.00789082
0.00452026
0.0360685
0.0108412
0.00727995
0.0460438
0.0114925
0.00933091
0.053762
0.0111808
0.0099087
0.0596309
0.0104411
0.0101453
0.0645791
0.00951444
0.0102357
0.0689459
0.00851047
0.0102685
0.072861
0.00747734
0.0102865
0.0763675
0.00643261
0.0103052
0.0794715
0.00537926
0.0103258
0.0821646
0.00431498
0.0103443
0.084434
0.00323782
0.0103566
0.0862667
0.00214871
0.0103608
0.0876512
0.00105159
0.0103572
0.0885783
-4.76391e-05
0.0103477
0.0890419
-0.00114228
0.0103338
0.0890391
-0.00222637
0.0103167
0.0885701
-0.00329601
0.0102972
0.0876386
-0.0043508
0.0102761
0.0862515
-0.00539419
0.0102557
0.0844187
-0.00643271
0.01024
0.0821526
-0.00747285
0.0102341
0.0794668
-0.00851347
0.0102409
0.0763741
-0.0095355
0.0102546
0.0728815
-0.0104854
0.0102522
0.0689798
-0.0112439
0.0101801
0.0646211
-0.0115577
0.00993827
0.0596691
-0.0108836
0.00931923
0.0537805
-0.00790036
0.00719068
0.0460414
0.00435074
0.0360592
0.00852048
0.00465785
0.0440306
0.0112834
0.00743655
0.0548482
0.0117232
0.00914614
0.0623595
0.0113254
0.00959128
0.0679172
0.0105734
0.00976502
0.0726367
0.00964888
0.00981992
0.0768377
0.00863702
0.0098231
0.0806159
0.00758301
0.00980904
0.0839986
0.00651087
0.00979272
0.0869892
0.00543125
0.00977887
0.0895807
0.00434715
0.00976712
0.0917625
0.00325864
0.00975533
0.0935235
0.00216589
0.00974187
0.0948535
0.00107037
0.00972668
0.0957441
-2.51218e-05
0.00971081
0.0961898
-0.00111732
0.00969573
0.0961877
-0.00220371
0.00968301
0.0957381
-0.00328342
0.00967405
0.0948447
-0.00435788
0.00967072
0.0935136
-0.00543043
0.00967551
0.091754
-0.00650422
0.00969148
0.0895764
-0.00757831
0.00972062
0.0869922
-0.00864177
0.00976057
0.084011
-0.00966777
0.0098014
0.0806378
-0.0106053
0.00982048
0.0768667
-0.0113626
0.00977541
0.0726664
-0.0117514
0.00959132
0.0679377
-0.0112882
0.00911006
0.0623606
-0.00850561
0.00734338
0.0548324
0.00451828
0.0440155
0.00899998
0.00465786
0.0516702
0.0115569
0.00732841
0.0631283
0.0118431
0.00873519
0.0703847
0.0113856
0.00907301
0.0756684
0.0106266
0.00919123
0.0801828
0.00971247
0.00921512
0.0842278
0.00870969
0.00919552
0.0878775
0.00765704
0.00915873
0.091148
0.00657866
0.0091174
0.0940379
0.00548836
0.00907758
0.0965401
0.00439296
0.00904132
0.0986452
0.00329515
0.00900869
0.100343
0.00219588
0.00897929
0.101625
0.00109604
0.00895335
0.102484
-3.15932e-06
0.00893187
0.102913
-0.00110045
0.00891634
0.102912
-0.00219504
0.00890848
0.10248
-0.00328729
0.0089101
0.10162
-0.00437847
0.00892312
0.100338
-0.0054699
0.00894948
0.0986415
-0.00656068
0.00899034
0.0965404
-0.0076444
0.00904458
0.0940439
-0.0087059
0.00910675
0.0911603
-0.00971792
0.00916555
0.087895
-0.0106375
0.00920197
0.0842469
-0.011394
0.00918413
0.0801978
-0.0118393
0.00905709
0.0756721
-0.0115359
0.00869417
0.0703725
-0.00897399
0.00725334
0.0631052
0.00456308
0.0516514
0.00936109
0.00450855
0.0588456
0.0117353
0.00698436
0.0707761
0.0119038
0.00812942
0.0777758
0.0114066
0.00837969
0.0828197
0.010646
0.00845236
0.087153
0.00974546
0.00845025
0.0910546
0.00875837
0.00841305
0.0945844
0.00771719
0.00836001
0.0977509
0.0066436
0.00830144
0.10055
0.00555196
0.00824323
0.102972
0.00445084
0.00818891
0.10501
0.00334494
0.00814018
0.106652
0.00223658
0.00809805
0.107892
0.00112711
0.00806347
0.108722
1.75333e-05
0.00803773
0.109138
-0.00109139
0.00802248
0.109137
-0.0021992
0.00801946
0.10872
-0.00330587
0.00803051
0.107889
-0.00441137
0.00805712
0.106649
-0.00551449
0.00810014
0.105009
-0.00661108
0.00815888
0.102974
-0.00769197
0.00823009
0.100555
-0.00874119
0.00830686
0.0977601
-0.00973442
0.00837848
0.0945951
-0.0106367
0.00842994
0.0910635
-0.0113928
0.00843827
0.0871556
-0.0118804
0.00836219
0.0828115
-0.0117028
0.00809929
0.0777559
-0.00933401
0.00693969
0.070751
0.00445953
0.0588269
0.0096421
0.00420551
0.0654131
0.0118578
0.00642987
0.0776975
0.0119349
0.00735
0.084458
0.0114092
0.00752978
0.0892941
0.0106497
0.00756657
0.0934684
0.00976315
0.0075443
0.0972406
0.00879374
0.00749437
0.10066
0.0077682
0.00743072
0.103732
0.00670508
0.00736133
0.106448
0.00561747
0.00729171
0.1088
0.00451437
0.00722586
0.110778
0.00340161
0.00716659
0.112372
0.00228285
0.00711598
0.113576
0.00116048
0.00707574
0.114381
3.62469e-05
0.00704759
0.114785
-0.00108837
0.00703331
0.114784
-0.00221213
0.00703465
0.11438
-0.0033337
0.00705313
0.113574
-0.00445115
0.00708962
0.112371
-0.005561
0.00714391
0.110778
-0.00665708
0.00721397
0.108802
-0.00772932
0.00729532
0.106452
-0.00876306
0.00738088
0.103737
-0.00973804
0.00746131
0.100665
-0.0106263
0.00752507
0.0972412
-0.0113831
0.00755596
0.0934624
-0.0119039
0.00752202
0.0892793
-0.011825
0.00734044
0.0844357
-0.00961939
0.00641869
0.0776742
0.0041953
0.065397
0.00985743
0.0037597
0.0712539
0.0119414
0.00568796
0.0838052
0.0119493
0.00641428
0.0903533
0.011403
0.00653859
0.0950134
0.0106461
0.00654891
0.0990504
0.00977254
0.00651293
0.102708
0.00882054
0.00645519
0.10603
0.00781174
0.00638614
0.109017
0.00676124
0.00631189
0.11166
0.0056803
0.00623722
0.11395
0.00457742
0.00616617
0.115876
0.00345893
0.00610209
0.117429
0.00232957
0.00604768
0.118601
0.00119302
0.00600523
0.119385
5.23505e-05
0.00597675
0.119779
-0.00108962
0.00596412
0.119778
-0.00223008
0.00596898
0.119384
-0.00336589
0.00599244
0.1186
-0.00449321
0.00603482
0.117428
-0.00560676
0.00609506
0.115876
-0.0066993
0.00617038
0.113951
-0.0077611
0.00625595
0.111661
-0.00877955
0.00634518
0.109017
-0.00973843
0.00643023
0.106029
-0.0106156
0.00650245
0.102703
-0.0113734
0.00654985
0.0990396
-0.0119193
0.00654759
0.0949963
-0.0119142
0.00642881
0.090332
-0.0098412
0.00570734
0.0837856
0.00377867
0.071241
0.0100189
0.00318852
0.0762712
0.0119962
0.00478432
0.0890207
0.011953
0.00534083
0.0953882
0.0113929
0.0054222
0.0999031
0.0106395
0.00541448
0.103825
0.00977827
0.00537125
0.107385
0.00884218
0.00531102
0.110622
0.00784911
0.00524169
0.113536
0.0068111
0.00516805
0.116117
0.0057374
0.00509417
0.118354
0.00463565
0.00502381
0.120236
0.00351228
0.00496037
0.121754
0.00237285
0.00490679
0.1229
0.0012223
0.00486557
0.123667
6.52301e-05
0.00483886
0.124051
-0.00109384
0.00482849
0.124051
-0.00225028
0.00483589
0.123666
-0.00339911
0.00486184
0.122899
-0.00453465
0.00490619
0.121753
-0.00565039
0.00496746
0.120235
-0.00673862
0.00504261
0.118353
-0.0077904
0.00512704
0.116116
-0.00879528
0.00521496
0.113534
-0.00974055
0.0053
0.110618
-0.0106082
0.00537536
0.107377
-0.0113655
0.00543199
0.103812
-0.0119286
0.00545096
0.0998864
-0.0119767
0.00537866
0.0953697
-0.0100088
0.00482842
0.0890055
0.0032275
0.0762612
0.0101364
0.0025138
0.0803831
0.0120306
0.00374728
0.0932769
0.0119512
0.00415131
0.099498
0.0113826
0.00419968
0.103898
0.0106335
0.00418125
0.107727
0.00978317
0.00413643
0.111208
0.00886085
0.00407872
0.114376
0.00788137
0.00401396
0.117229
0.00685424
0.00394595
0.119759
0.005787
0.00387805
0.121952
0.00468633
0.00381359
0.123799
0.00355861
0.00375567
0.125289
0.00241
0.00370709
0.126413
0.00124659
0.00367025
0.127166
7.44649e-05
0.0036472
0.127544
-0.00110021
0.00363959
0.127544
-0.00227101
0.00364858
0.127166
-0.00343123
0.0036747
0.126412
-0.00457376
0.0037175
0.125287
-0.00569111
0.00377543
0.123797
-0.00677547
0.00384561
0.12195
-0.00781874
0.00392403
0.119756
-0.00881232
0.00400583
0.117225
-0.00974604
0.00408586
0.114369
-0.0106051
0.00415877
0.111198
-0.0113604
0.00421764
0.107714
-0.0119338
0.00424823
0.103883
-0.0120184
0.00420948
0.0994828
-0.0101313
0.00380986
0.0932655
0.00256545
0.0803755
0.0102182
0.00175973
0.0835241
0.0120515
0.00260763
0.0965185
0.0119479
0.00287083
0.102629
0.0113751
0.00289343
0.106943
0.0106304
0.00287005
0.110702
0.00978917
0.00282828
0.114123
0.0088779
0.00277733
0.117238
0.00790909
0.00272136
0.120045
0.00689038
0.00266327
0.122536
0.00582793
0.00260576
0.124696
0.00472769
0.00255154
0.126516
0.00359593
0.00250319
0.127984
0.00243929
0.00246306
0.129092
0.00126479
0.00243321
0.129835
7.97422e-05
0.00241536
0.130207
-0.00110819
0.00241086
0.130207
-0.00229113
0.0024206
0.129834
-0.00346092
0.00244488
0.129091
-0.00460933
0.00248319
0.127982
-0.00572821
0.00253413
0.126514
-0.00680972
0.0025953
0.124693
-0.00784643
0.00266344
0.122532
-0.00883109
0.00273474
0.12004
-0.00975542
0.00280516
0.11723
-0.0106068
0.00287052
0.114113
-0.0113588
0.00292563
0.110691
-0.0119369
0.00296036
0.106929
-0.0120451
0.00294585
0.102617
-0.0102166
0.00268346
0.0965099
0.00181879
0.0835183
0.0102705
0.000951396
0.0856455
0.0120643
0.00139766
0.0987034
0.0119464
0.00152711
0.10474
0.0113723
0.00152873
0.108996
0.0106318
0.00150434
0.112709
0.00979731
0.00146904
0.11609
0.00889382
0.00142807
0.119169
0.00793224
0.00138413
0.121946
0.00691896
0.00133928
0.124409
0.00585921
0.00129552
0.126547
0.00475846
0.0012548
0.128349
0.00362292
0.00121902
0.129802
0.00245959
0.00118989
0.1309
0.00127617
0.00116892
0.131636
8.09359e-05
0.00115737
0.132004
-0.00111739
0.00115618
0.132004
-0.0023098
0.00116597
0.131635
-0.00348712
0.00118685
0.130899
-0.00464032
0.00121842
0.129801
-0.00576078
0.00125957
0.128346
-0.00684063
0.00130857
0.126544
-0.0078729
0.00136309
0.124405
-0.00885121
0.00142039
0.121939
-0.00976845
0.00147751
0.119161
-0.0106135
0.00153137
0.11608
-0.0113615
0.00157835
0.112699
-0.0119406
0.00161213
0.108985
-0.012062
0.00161594
0.104729
-0.010271
0.00148299
0.0986967
0.00101462
0.0856408
0.0102969
0.000114466
0.0867144
0.0120724
0.00015051
0.0998035
0.0119491
0.000149592
0.105802
0.0113756
0.000132779
0.11003
0.0106381
0.00010959
0.11372
0.00980776
8.27776e-05
0.11708
0.00890842
5.38152e-05
0.120142
0.00795032
2.39634e-05
0.122903
0.0069392
-5.53509e-06
0.125353
0.00587987
-3.34647e-05
0.12748
0.00477759
-5.86702e-05
0.129272
0.00363859
-8.00729e-05
0.130719
0.00247012
-9.67012e-05
0.131811
0.00128032
-0.00010771
0.132543
7.80269e-05
-0.00011239
0.13291
-0.0011274
-0.000110226
0.13291
-0.00232629
-0.000100924
0.132542
-0.00350888
-8.44546e-05
0.13181
-0.00466565
-6.11272e-05
0.130717
-0.00578772
-3.15708e-05
0.129269
-0.00686715
3.22046e-06
0.127477
-0.00789717
4.19263e-05
0.125348
-0.00887181
8.29344e-05
0.122897
-0.00978458
0.000124404
0.120134
-0.010625
0.00016436
0.117071
-0.0113693
0.000200698
0.11371
-0.011947
0.000230878
0.11002
-0.0120727
0.000250104
0.105793
-0.0102984
0.000243135
0.0997975
0.000180314
0.0867103
0.0102991
-0.000725127
0.0867148
0.0120775
-0.00110012
0.0998041
0.0119567
-0.00123128
0.105803
0.0113853
-0.00126616
0.110031
0.0106495
-0.00128767
0.113721
0.00982012
-0.00130537
0.117081
0.00892109
-0.00132165
0.120143
0.00796255
-0.00133668
0.122904
0.00695025
-0.00135008
0.125354
0.00588905
-0.00136148
0.127481
0.00478427
-0.00137054
0.129273
0.00364228
-0.00137706
0.130719
0.00247045
-0.00138082
0.131812
0.00127707
-0.00138166
0.132544
7.11393e-05
-0.00137943
0.132911
-0.00113781
-0.00137406
0.13291
-0.00233994
-0.00136554
0.132543
-0.00352534
-0.00135397
0.131811
-0.00468436
-0.00133948
0.130718
-0.00580798
-0.00132224
0.129271
-0.00688821
-0.00130247
0.127478
-0.00791822
-0.00128042
0.125349
-0.00889202
-0.00125655
0.122898
-0.00980318
-0.00123153
0.120135
-0.0106413
-0.00120619
0.117072
-0.0113826
-0.00118104
0.113711
-0.0119569
-0.00115483
0.110021
-0.0120789
-0.0011203
0.105794
-0.0103009
-0.00100098
0.099798
-0.00065674
0.0867105
0.0102771
-0.00154126
0.0856467
0.0120792
-0.00232027
0.0987053
0.0119688
-0.00258487
0.104742
0.011401
-0.00263967
0.108999
0.0106652
-0.00266072
0.112712
0.00983367
-0.00267019
0.116092
0.00893105
-0.00267446
0.119172
0.00796816
-0.00267529
0.121948
0.0069514
-0.00267328
0.124412
0.00588611
-0.00266887
0.12655
0.00477803
-0.00266261
0.128351
0.00363367
-0.00265505
0.129805
0.00246043
-0.00264673
0.130903
0.00126646
-0.00263806
0.131638
6.05131e-05
-0.00262943
0.132007
-0.00114821
-0.00262114
0.132007
-0.00235019
-0.00261349
0.131638
-0.00353583
-0.00260668
0.130902
-0.00469567
-0.00260074
0.129804
-0.00582077
-0.00259542
0.128349
-0.00690301
-0.00259017
0.126547
-0.00793529
-0.00258424
0.124408
-0.00891118
-0.00257689
0.121943
-0.00982368
-0.00256755
0.119165
-0.0106618
-0.00255581
0.116084
-0.0114012
-0.00254045
0.112702
-0.0119703
-0.00251628
0.108988
-0.0120807
-0.00246381
0.104732
-0.0102785
-0.00221417
0.0986983
-0.00146933
0.0856417
0.0102287
-0.00230769
0.083526
0.0120753
-0.00347618
0.0965214
0.0119837
-0.00388113
0.102633
0.011421
-0.00396001
0.106947
0.0106839
-0.0039837
0.110707
0.00984732
-0.00398728
0.114127
0.00893737
-0.00398157
0.117242
0.00796642
-0.00397018
0.12005
0.00694208
-0.00395476
0.12254
0.00587074
-0.00393666
0.124701
0.00475873
-0.00391723
0.12652
0.00361281
-0.0038977
0.127988
0.00244027
-0.00387917
0.129097
0.0012488
-0.0038625
0.129839
4.65014e-05
-0.00384846
0.130212
-0.0011582
-0.00383767
0.130212
-0.00235663
-0.00383071
0.129839
-0.00353989
-0.00382794
0.129096
-0.0046991
-0.00382936
0.127988
-0.00582557
-0.00383444
0.126519
-0.00691105
-0.00384202
0.124699
-0.0079479
-0.00385039
0.122537
-0.0089288
-0.00385759
0.120046
-0.00984558
-0.00386174
0.117236
-0.0106859
-0.003861
0.114119
-0.011424
-0.00385217
0.110696
-0.0119859
-0.00382577
0.106935
-0.0120762
-0.00374982
0.102621
-0.0102294
-0.00336169
0.0965127
-0.0022303
0.0835199
0.01015
-0.00299842
0.0803855
0.0120618
-0.00453451
0.0932805
0.0119984
-0.00509139
0.0995028
0.0114431
-0.00520111
0.103903
0.010704
-0.00523249
0.107733
0.00985963
-0.00523396
0.111214
0.00893897
-0.00522151
0.114382
0.00795653
-0.00520101
0.117235
0.00692191
-0.0051754
0.119765
0.00584287
-0.00514697
0.121958
0.00472663
-0.00511777
0.123805
0.0035802
-0.00508954
0.125294
0.00241055
-0.00506366
0.126419
0.00122467
-0.00504124
0.127172
2.96031e-05
-0.00502321
0.12755
-0.00116741
-0.00501044
0.12755
-0.00235892
-0.00500374
0.127172
-0.00353722
-0.00500368
0.126419
-0.0046943
-0.00501043
0.125294
-0.00582197
-0.00502338
0.123805
-0.00691186
-0.00504097
0.121958
-0.00795556
-0.00506071
0.119763
-0.00894438
-0.00507944
0.117233
-0.00986829
-0.00509384
0.114377
-0.0107128
-0.00510029
0.111206
-0.0114497
-0.00509312
0.107723
-0.0120012
-0.00505785
0.10389
-0.0120615
-0.00494971
0.0994892
-0.0101492
-0.00440955
0.0932696
-0.00291261
0.0803779
0.0100347
-0.00358817
0.0762739
0.012033
-0.00546307
0.0890246
0.0120089
-0.00618935
0.0953937
0.0114645
-0.00633958
0.0999094
0.010723
-0.00638555
0.103832
0.00986872
-0.00638987
0.107393
0.00893439
-0.0063749
0.11063
0.00793765
-0.00634931
0.113543
0.00689059
-0.00631768
0.116124
0.00580283
-0.00628332
0.118361
0.00468254
-0.00624884
0.120243
0.00353693
-0.00621617
0.121761
0.00237243
-0.00618665
0.122907
0.00119504
-0.0061613
0.123674
1.05019e-05
-0.00614104
0.124059
-0.00117544
-0.00612685
0.124059
-0.00235692
-0.00611973
0.123674
-0.00352769
-0.00612059
0.122907
-0.00468103
-0.00612984
0.121762
-0.00580949
-0.00614715
0.120244
-0.00690472
-0.00617095
0.118362
-0.00795739
-0.00619824
0.116125
-0.00895692
-0.00622482
0.113543
-0.00989071
-0.00624562
0.110628
-0.0107411
-0.00625477
0.107387
-0.0114763
-0.00624338
0.103823
-0.0120129
-0.00619069
0.0998961
-0.012031
-0.00603819
0.0953781
-0.0100315
-0.00532552
0.0890109
-0.00348964
0.0762644
0.00987447
-0.00405376
0.0712567
0.0119817
-0.00623208
0.083809
0.0120109
-0.00715217
0.0903591
0.0114823
-0.00735551
0.0950204
0.0107382
-0.00742408
0.0990583
0.00987229
-0.00743729
0.102717
0.00892194
-0.00742453
0.106039
0.00790882
-0.0073984
0.109025
0.00684813
-0.00736565
0.111669
0.00575152
-0.00733066
0.113959
0.0046281
-0.0072963
0.115884
0.00348499
-0.00726423
0.117437
0.00232784
-0.00723534
0.118609
0.00116143
-0.00721026
0.119394
-9.93547e-06
-0.00718971
0.119787
-0.00118209
-0.00717469
0.119787
-0.00235081
-0.00716635
0.119394
-0.00351158
-0.00716588
0.118609
-0.00465926
-0.00717421
0.117438
-0.00578754
-0.00719156
0.115886
-0.0068884
-0.00721682
0.113961
-0.00795166
-0.00724707
0.111672
-0.00896455
-0.00727733
0.109029
-0.00991102
-0.00730068
0.10604
-0.0107692
-0.00730816
0.102715
-0.0115022
-0.00728621
0.0990516
-0.0120182
-0.0072067
0.0950079
-0.0119786
-0.00699456
0.0903421
-0.00986831
-0.00608082
0.0837923
-0.00393736
0.0712449
0.00965908
-0.00437625
0.0654156
0.0118994
-0.00681465
0.077701
0.0119995
-0.00796045
0.084464
0.0114926
-0.00823195
0.0893018
0.0107467
-0.00833235
0.0934774
0.00986766
-0.00836048
0.0972503
0.00889956
-0.00835447
0.10067
0.00786912
-0.00833268
0.103742
0.00679507
-0.00830444
0.106458
0.00569093
-0.00827495
0.10881
0.00456631
-0.00824683
0.110787
0.00342775
-0.00822088
0.112381
0.00227984
-0.00819713
0.113585
0.00112601
-0.00817557
0.11439
-3.07089e-05
-0.0081567
0.114794
-0.0011875
-0.00814142
0.114794
-0.00234159
-0.008131
0.11439
-0.00349013
-0.00812689
0.113584
-0.00462978
-0.00813049
0.112382
-0.00575589
-0.00814285
0.110789
-0.00686138
-0.00816394
0.108814
-0.00793571
-0.00819167
0.106464
-0.00896403
-0.0082209
0.103749
-0.00992621
-0.00824314
0.100677
-0.0107947
-0.00824561
0.097254
-0.0115254
-0.00820778
0.0934755
-0.0120141
-0.00809185
0.0892923
-0.0118976
-0.00780268
0.0844473
-0.00965058
-0.00665126
0.0776822
-0.00423758
0.0654018
0.00937735
-0.00454394
0.0588477
0.011777
-0.00718714
0.0707791
0.0119696
-0.00859624
0.0777818
0.0114914
-0.00895281
0.0828281
0.0107442
-0.00909449
0.087163
0.00985061
-0.00914302
0.0910653
0.00886427
-0.00914853
0.0945952
0.00781763
-0.0091365
0.0977615
0.00673284
-0.00911927
0.10056
0.00562456
-0.00910225
0.102982
0.00450193
-0.00908697
0.105019
0.00337029
-0.00907273
0.106661
0.00223275
-0.00905833
0.107901
0.00109167
-0.00904326
0.108732
-5.08165e-05
-0.00902776
0.109148
-0.00119252
-0.0090128
0.109147
-0.00233152
-0.00899964
0.108731
-0.00346621
-0.00898976
0.1079
-0.00459502
-0.00898488
0.106661
-0.00571544
-0.00898692
0.105021
-0.00682231
-0.00899736
0.102987
-0.00790587
-0.00901587
0.100568
-0.00894997
-0.00903843
0.0977726
-0.00993052
-0.00905562
0.0946079
-0.0108129
-0.00905052
0.0910765
-0.0115426
-0.00899346
0.0871689
-0.0119975
-0.0088329
0.082825
-0.011781
-0.00844883
0.0777683
-0.00936841
-0.0070176
0.0707599
-0.00438115
0.0588325
0.00901532
-0.00456102
0.0516719
0.0115983
-0.00732393
0.0631309
0.0119087
-0.00903755
0.070391
0.0114698
-0.0094989
0.0756776
0.0107229
-0.00969133
0.0801937
0.00981468
-0.00976519
0.0842392
0.00881177
-0.00978726
0.0878888
0.00775335
-0.0097917
0.0911586
0.00666391
-0.00979347
0.0940478
0.00555759
-0.00979683
0.0965494
0.00444166
-0.00980116
0.0986541
0.00331928
-0.00980363
0.100352
0.00219209
-0.009802
0.101634
0.00106177
-0.0097955
0.102493
-6.93657e-05
-0.00978467
0.102923
-0.0011988
-0.00977056
0.102922
-0.00232431
-0.00975437
0.102491
-0.00344465
-0.00973727
0.101631
-0.00455955
-0.00972084
0.10035
-0.00566889
-0.00970743
0.0986539
-0.0067706
-0.00970005
0.0965529
-0.00785754
-0.00970114
0.0940564
-0.00891434
-0.00970927
0.0911727
-0.009914
-0.00971606
0.0879073
-0.010814
-0.00970086
0.0842592
-0.0115444
-0.00962341
0.0802103
-0.0119574
-0.0094121
0.0756848
-0.0116154
-0.00891524
0.0703844
-0.00900935
-0.00716052
0.063114
-0.00437758
0.0516573
0.00853588
-0.00444084
0.0440326
0.0113245
-0.00719552
0.0548507
0.0117876
-0.00925235
0.0623662
0.0114067
-0.00984329
0.0679274
0.010665
-0.0100936
0.0726483
0.00974492
-0.0101971
0.0768494
0.00873204
-0.0102427
0.0806268
0.00767226
-0.0102733
0.0840086
0.00658967
-0.0103045
0.0869982
0.00549538
-0.0103375
0.089589
0.00439259
-0.0103677
0.0917705
0.00328167
-0.0103906
0.0935316
0.00216328
-0.0104037
0.0948619
0.00103961
-0.0104069
0.0957531
-8.56981e-05
-0.0104013
0.0961994
-0.00120823
-0.0103886
0.096198
-0.00232415
-0.0103696
0.0957492
-0.0034311
-0.0103448
0.0948563
-0.00452902
-0.0103149
0.0935258
-0.0056197
-0.0102819
0.0917664
-0.00670491
-0.0102496
0.0895889
-0.00778286
-0.010223
0.0870044
-0.00884222
-0.0102054
0.0840227
-0.00985625
-0.0101924
0.0806489
-0.0107748
-0.0101623
0.0768774
-0.0115066
-0.0100642
0.0726769
-0.0118641
-0.00980088
0.0679483
-0.0113638
-0.00917164
0.0623706
-0.00853939
-0.00705723
0.05484
-0.00424994
0.0440216
0.00790696
-0.00420002
0.0360709
0.0108812
-0.00673523
0.0460476
0.0115542
-0.00919018
0.0537693
0.011257
-0.00992988
0.0596415
0.010525
-0.0102368
0.0645906
0.00960115
-0.0103778
0.0689567
0.00859567
-0.0104628
0.0728706
0.00755708
-0.0105381
0.0763757
0.00650325
-0.0106143
0.0794787
0.0054373
-0.010687
0.0821712
0.00435683
-0.0107482
0.0844406
0.00326027
-0.0107935
0.0862736
0.00214872
-0.0108219
0.0876586
0.00102663
-0.0108348
0.0885864
-9.92651e-05
-0.0108349
0.0890508
-0.0012214
-0.0108239
0.0890488
-0.00233259
-0.0108026
0.0885806
-0.00342779
-0.0107706
0.0876498
-0.00450507
-0.0107269
0.0862633
-0.00556637
-0.0106718
0.0844308
-0.00661683
-0.0106081
0.0821647
-0.00766162
-0.0105417
0.0794785
-0.00869893
-0.0104807
0.076385
-0.00970984
-0.0104278
0.0728913
-0.0106412
-0.0103671
0.0689884
-0.011375
-0.0102437
0.0646287
-0.0116589
-0.00993568
0.0596764
-0.01095
-0.00916356
0.0537876
-0.00792966
-0.00664359
0.0460481
-0.00402603
0.0360651
0.00701534
-0.00375362
0.0279106
0.0102124
-0.0059673
0.0368652
0.0111455
-0.0087472
0.0446617
0.0109143
-0.00957755
0.050845
0.0101837
-0.00993978
0.0560211
0.00928133
-0.0101551
0.0605559
0.00832882
-0.0103241
0.0646217
0.0073594
-0.0104808
0.0682728
0.00637349
-0.0106258
0.0715119
0.0053624
-0.0107503
0.074326
0.00431973
-0.0108478
0.0766989
0.0032444
-0.0109174
0.0786155
0.0021414
-0.0109619
0.0800634
0.00101963
-0.0109853
0.0810331
-0.000109544
-0.0109914
0.0815182
-0.00123397
-0.0109826
0.0815156
-0.00234198
-0.0109593
0.0810255
-0.00342378
-0.01092
0.0800516
-0.00447306
-0.0108619
0.0786006
-0.00548845
-0.0107825
0.0766827
-0.00647505
-0.010681
0.0743112
-0.00744387
-0.0105603
0.0715019
-0.00840693
-0.0104287
0.0682716
-0.00936487
-0.0102952
0.0646332
-0.0102819
-0.0101561
0.0605821
-0.0110282
-0.00996974
0.0560599
-0.0112623
-0.00962204
0.0508865
-0.0103045
-0.00877485
0.0446913
-0.00705907
-0.00593704
0.0368782
-0.00362489
0.0279121
0.00688681
-0.00428853
0.0199147
0.00960761
-0.0040855
0.0273242
0.0103858
-0.00735696
0.0351588
0.0100352
-0.00821088
0.0414215
0.00933865
-0.00873602
0.0467224
0.00856932
-0.00913581
0.0514262
0.00778491
-0.00946985
0.0556828
0.00697735
-0.00975894
0.0595218
0.00612471
-0.0100013
0.0629338
0.00521117
-0.0101933
0.0658997
0.00423304
-0.0103369
0.0683998
0.00319723
-0.010439
0.0704178
0.00211652
-0.0105065
0.0719412
0.00100675
-0.0105455
0.0729609
-0.000115025
-0.0105608
0.0734708
-0.00123132
-0.0105547
0.0734681
-0.00232515
-0.0105275
0.0729528
-0.00338055
-0.0104769
0.0719283
-0.00438394
-0.0103989
0.0704008
-0.00532576
-0.010288
0.0683798
-0.00620368
-0.0101386
0.0658786
-0.00702672
-0.00994602
0.0629144
-0.00781617
-0.00971085
0.0595077
-0.00859821
-0.00943882
0.0556784
-0.00938156
-0.00913198
0.0514355
-0.0101039
-0.00876425
0.0467464
-0.0104769
-0.00826692
0.0414555
-0.00969547
-0.00741959
0.0351905
-0.00693701
-0.0041144
0.0273457
-0.00421736
0.0199221
0.00331413
-0.000308948
0.00972799
0.00551235
-0.00132503
0.017931
0.00643281
-0.00473197
0.0249426
0.00654659
-0.00527784
0.0307389
0.00647094
-0.00587519
0.0359678
0.0062834
-0.00638877
0.0408026
0.00600146
-0.00684884
0.0452483
0.00560809
-0.00723992
0.0492794
0.00508482
-0.0075573
0.052873
0.00442992
-0.00780685
0.056003
0.0036577
-0.00799712
0.0586432
0.00279246
-0.00813885
0.0607738
0.00185958
-0.00823808
0.0623815
0.000884038
-0.00830012
0.0634575
-0.00010991
-0.00832875
0.0639958
-0.0010984
-0.00832608
0.0639938
-0.00205776
-0.00829205
0.0634513
-0.0029643
-0.00822454
0.0623712
-0.00379418
-0.00811963
0.0607593
-0.00452396
-0.00797252
0.0586251
-0.00513336
-0.00777709
0.0559824
-0.00561314
-0.00752409
0.0528516
-0.00597172
-0.00720657
0.0492593
-0.00623394
-0.00682193
0.0452327
-0.00642424
-0.00637489
0.0407953
-0.00652485
-0.00588229
0.0359716
-0.00645497
-0.00530495
0.0307538
-0.00556854
-0.00478261
0.0249646
-0.00338053
-0.00136779
0.017955
-0.00031307
0.00973689
-0.000101569
0.00755201
0.00264366
0.0097678
0.00254424
0.0150048
0.00278399
0.0196074
0.00299982
0.0241792
0.00315238
0.028503
0.00321301
0.0325112
0.00315767
0.0361902
0.00296804
0.0395169
0.00265102
0.0424404
0.00222699
0.0449217
0.00171851
0.0469336
0.00114928
0.0484572
0.000541764
0.0494797
-8.25779e-05
0.0499925
-0.000702976
0.0499913
-0.0012986
0.0494759
-0.00184787
0.0484508
-0.00232803
0.0469245
-0.00271579
0.0449101
-0.00298947
0.0424268
-0.00313152
0.0395025
-0.00313924
0.036176
-0.00303831
0.0324979
-0.00286096
0.0284921
-0.00264543
0.0241724
-0.0024311
0.0196057
-0.0025839
0.0150075
0.000112919
0.00977345
0.00755924
0.000912748
0.000283678
0.00635367
0.00168354
0.000470083
0.00852533
0.00193699
0.00138197
0.0133679
0.00217845
0.00183721
0.0175276
0.00227274
0.0024706
0.0216136
0.00225193
0.00307003
0.0254535
0.00214248
0.00361098
0.0290097
0.00197714
0.00407933
0.0322763
0.00177786
0.00448057
0.0352352
0.00155554
0.00482334
0.0378385
0.00131283
0.00511329
0.0400497
0.00104912
0.00535228
0.0418431
0.00076399
0.00553838
0.0432015
0.000459482
0.00566746
0.044114
0.00014041
0.00573581
0.0445726
-0.000186905
0.00574157
0.0445735
-0.000516676
0.00568529
0.0441166
-0.00084557
0.00556985
0.0432058
-0.00117356
0.00539964
0.0418486
-0.00150298
0.00517887
0.0400561
-0.00183544
0.00490871
0.0378459
-0.00216495
0.00458386
0.0352436
-0.00246918
0.00419091
0.0322848
-0.00270332
0.00371033
0.0290169
-0.00280198
0.00312768
0.0254585
-0.00270399
0.00245434
0.0216161
-0.00235896
0.00172981
0.0175279
-0.00191514
0.00119459
0.0133671
-0.000962797
0.0002974
0.00852261
0.000245992
0.00634942
0.000652453