/*--------------------------------*- C++ -*----------------------------------*\
| =========                 |                                                 |
| \\      /  F ield         | OpenFOAM: The Open Source CFD Toolbox           |
|  \\    /   O peration     | Version:  2312                                  |
|   \\  /    A nd           | Website:  www.openfoam.com                      |
|    \\/     M anipulation  |                                                 |
\*---------------------------------------------------------------------------*/
FoamFile
{
    version     2.0;
    format      ascii;
    arch        "LSB;label=32;scalar=64";
    class       volScalarField;
    location    "600";
    object      T;
}
// * * * * * * * * * * * * * * * * * * * * * * * * * * * * * * * * * * * * * //

dimensions      [0 0 0 1 0 0 0];

internalField   nonuniform List<scalar> 
27000
(
425.833
355.602
347.084
343.002
342.353
342.474
342.711
342.961
343.205
343.413
343.581
343.714
343.814
343.882
343.916
343.918
343.887
343.824
343.728
343.599
343.434
343.226
342.981
342.725
342.476
342.334
342.948
346.983
355.445
425.51
335.842
354.347
348.293
346.682
346.423
346.651
346.92
347.139
347.307
347.435
347.531
347.602
347.653
347.687
347.705
347.709
347.698
347.671
347.626
347.56
347.466
347.335
347.158
346.923
346.626
346.364
346.586
348.17
354.217
335.847
342.332
345.571
348.065
347.823
347.682
347.73
347.846
347.956
348.042
348.106
348.153
348.186
348.21
348.226
348.236
348.24
348.238
348.228
348.209
348.179
348.131
348.06
347.961
347.832
347.691
347.62
347.746
347.991
345.538
342.344
342.268
346.094
347.654
347.942
347.948
347.965
348.02
348.088
348.149
348.198
348.235
348.262
348.281
348.294
348.303
348.306
348.305
348.297
348.281
348.254
348.214
348.157
348.083
348
347.929
347.902
347.895
347.621
346.088
342.283
342.691
346.635
347.809
348.016
348.05
348.06
348.086
348.125
348.167
348.206
348.237
348.261
348.279
348.292
348.299
348.302
348.3
348.292
348.276
348.251
348.216
348.17
348.117
348.068
348.035
348.023
347.995
347.801
346.646
342.712
343.116
347.009
347.953
348.102
348.121
348.121
348.129
348.148
348.175
348.202
348.228
348.248
348.264
348.276
348.283
348.285
348.283
348.275
348.26
348.238
348.209
348.176
348.143
348.118
348.108
348.111
348.1
347.963
347.033
343.141
343.513
347.267
348.048
348.165
348.174
348.167
348.163
348.169
348.183
348.201
348.219
348.236
348.25
348.26
348.266
348.268
348.265
348.258
348.245
348.228
348.207
348.186
348.169
348.161
348.165
348.178
348.177
348.07
347.298
343.538
343.851
347.451
348.109
348.205
348.21
348.199
348.189
348.187
348.192
348.202
348.215
348.227
348.238
348.246
348.251
348.253
348.251
348.245
348.235
348.223
348.209
348.198
348.192
348.195
348.207
348.224
348.226
348.138
347.484
343.873
344.137
347.584
348.149
348.229
348.231
348.219
348.207
348.201
348.2
348.205
348.213
348.221
348.229
348.236
348.24
348.241
348.24
348.236
348.229
348.221
348.214
348.209
348.21
348.219
348.234
348.251
348.255
348.18
347.615
344.155
344.373
347.68
348.174
348.241
348.242
348.23
348.218
348.209
348.206
348.207
348.212
348.217
348.223
348.228
348.232
348.233
348.232
348.229
348.225
348.221
348.218
348.217
348.222
348.233
348.249
348.265
348.268
348.204
347.707
344.388
344.56
347.75
348.189
348.246
348.246
348.234
348.222
348.214
348.209
348.209
348.211
348.215
348.219
348.223
348.226
348.227
348.227
348.225
348.223
348.221
348.22
348.223
348.229
348.24
348.255
348.27
348.272
348.216
347.772
344.571
344.701
347.798
348.197
348.247
348.245
348.234
348.223
348.215
348.21
348.209
348.21
348.213
348.216
348.219
348.221
348.222
348.222
348.222
348.221
348.22
348.221
348.224
348.231
348.242
348.255
348.268
348.27
348.22
347.816
344.71
344.802
347.83
348.2
348.244
348.242
348.232
348.222
348.214
348.21
348.208
348.209
348.211
348.213
348.215
348.217
348.218
348.219
348.219
348.219
348.219
348.22
348.224
348.231
348.24
348.252
348.263
348.266
348.22
347.845
344.809
344.867
347.849
348.201
348.242
348.239
348.229
348.219
348.212
348.208
348.207
348.207
348.209
348.211
348.213
348.214
348.216
348.216
348.216
348.217
348.217
348.219
348.223
348.228
348.237
348.248
348.258
348.261
348.219
347.862
344.873
344.898
347.857
348.2
348.239
348.236
348.226
348.217
348.21
348.207
348.205
348.206
348.207
348.209
348.211
348.212
348.214
348.214
348.214
348.215
348.215
348.217
348.22
348.226
348.234
348.244
348.254
348.257
348.217
347.869
344.903
344.897
347.856
348.199
348.238
348.234
348.224
348.215
348.209
348.205
348.204
348.204
348.206
348.208
348.21
348.211
348.212
348.213
348.213
348.213
348.214
348.215
348.218
348.224
348.232
348.242
348.252
348.255
348.215
347.868
344.903
344.865
347.845
348.197
348.237
348.234
348.224
348.215
348.208
348.204
348.203
348.203
348.205
348.207
348.209
348.211
348.212
348.212
348.212
348.212
348.212
348.213
348.216
348.222
348.23
348.241
348.252
348.255
348.213
347.858
344.87
344.799
347.824
348.194
348.237
348.235
348.224
348.214
348.207
348.203
348.202
348.203
348.205
348.207
348.209
348.211
348.212
348.212
348.212
348.211
348.211
348.211
348.214
348.22
348.229
348.241
348.252
348.255
348.211
347.838
344.805
344.697
347.79
348.188
348.237
348.235
348.224
348.213
348.206
348.201
348.201
348.202
348.205
348.208
348.211
348.213
348.214
348.213
348.212
348.21
348.209
348.209
348.211
348.217
348.227
348.239
348.252
348.255
348.206
347.805
344.704
344.554
347.74
348.178
348.234
348.234
348.222
348.21
348.202
348.199
348.199
348.201
348.205
348.21
348.213
348.216
348.217
348.216
348.214
348.21
348.207
348.205
348.206
348.212
348.222
348.235
348.25
348.253
348.198
347.758
344.564
344.367
347.669
348.161
348.227
348.228
348.216
348.204
348.196
348.194
348.196
348.201
348.207
348.213
348.218
348.221
348.222
348.22
348.217
348.211
348.206
348.201
348.199
348.202
348.212
348.226
348.241
348.245
348.181
347.689
344.378
344.13
347.572
348.134
348.213
348.215
348.203
348.192
348.186
348.187
348.193
348.201
348.21
348.218
348.225
348.229
348.229
348.227
348.222
348.214
348.205
348.196
348.189
348.189
348.195
348.208
348.224
348.227
348.154
347.593
344.143
343.843
347.438
348.093
348.187
348.192
348.181
348.173
348.172
348.179
348.19
348.203
348.216
348.227
348.235
348.239
348.241
348.238
348.231
348.22
348.206
348.192
348.178
348.17
348.17
348.18
348.194
348.195
348.108
347.459
343.859
343.505
347.253
348.029
348.145
348.155
348.148
348.147
348.155
348.17
348.189
348.208
348.225
348.239
348.248
348.254
348.255
348.252
348.244
348.231
348.212
348.19
348.167
348.148
348.137
348.138
348.147
348.144
348.037
347.27
343.521
343.107
346.993
347.932
348.08
348.101
348.103
348.113
348.135
348.163
348.192
348.217
348.238
348.254
348.265
348.272
348.273
348.27
348.261
348.246
348.223
348.193
348.159
348.124
348.097
348.083
348.081
348.066
347.928
347.002
343.122
342.681
346.617
347.786
347.994
348.03
348.043
348.071
348.113
348.157
348.196
348.228
348.253
348.27
348.282
348.289
348.291
348.288
348.279
348.263
348.238
348.201
348.155
348.102
348.05
348.014
347.996
347.963
347.765
346.613
342.69
342.255
346.073
347.629
347.919
347.929
347.951
348.009
348.078
348.141
348.191
348.228
348.255
348.273
348.286
348.293
348.296
348.294
348.285
348.269
348.242
348.202
348.145
348.071
347.987
347.915
347.883
347.868
347.587
346.053
342.258
342.317
345.545
348.039
347.803
347.668
347.72
347.839
347.951
348.038
348.102
348.148
348.18
348.203
348.219
348.228
348.231
348.228
348.218
348.199
348.168
348.12
348.05
347.953
347.825
347.685
347.612
347.732
347.965
345.502
342.314
335.821
354.313
348.273
346.67
346.416
346.647
346.919
347.138
347.306
347.434
347.529
347.598
347.648
347.682
347.699
347.702
347.691
347.663
347.618
347.552
347.458
347.328
347.153
346.92
346.627
346.368
346.591
348.168
354.192
335.806
425.762
355.581
347.075
342.999
342.353
342.475
342.712
342.962
343.205
343.413
343.58
343.713
343.813
343.879
343.913
343.915
343.884
343.821
343.724
343.595
343.43
343.223
342.978
342.724
342.477
342.339
342.958
346.996
355.453
425.474
449.26
364.324
348.333
339.592
336.801
336.078
335.983
336.101
336.304
336.525
336.726
336.888
337.008
337.086
337.122
337.118
337.072
336.985
336.856
336.684
336.476
336.253
336.053
335.949
336.077
336.866
339.757
348.61
364.708
449.985
332.169
361.811
352.895
347.54
344.543
343.513
343.378
343.544
343.783
344.019
344.223
344.384
344.5
344.574
344.607
344.6
344.553
344.465
344.335
344.163
343.953
343.72
343.499
343.372
343.573
344.691
347.767
353.153
362.069
332.158
337.004
343.8
349.747
349.263
347.965
347.152
346.827
346.751
346.773
346.826
346.882
346.932
346.969
346.992
347
346.991
346.968
346.931
346.882
346.825
346.77
346.73
346.736
346.858
347.244
348.114
349.44
349.903
343.879
337.009
335.997
341.895
346.508
348.193
348.309
348.062
347.853
347.736
347.68
347.656
347.648
347.647
347.648
347.648
347.644
347.637
347.627
347.615
347.606
347.605
347.619
347.659
347.743
347.897
348.145
348.417
348.3
346.58
341.918
335.981
336.354
342.267
346.033
347.579
348.074
348.146
348.092
348.023
347.968
347.928
347.901
347.882
347.87
347.86
347.853
347.847
347.843
347.844
347.852
347.871
347.906
347.961
348.038
348.13
348.202
348.136
347.63
346.05
342.245
336.315
336.706
343.023
346.279
347.476
347.93
348.085
348.114
348.095
348.061
348.028
348
347.977
347.96
347.948
347.939
347.935
347.935
347.941
347.956
347.98
348.015
348.059
348.106
348.137
348.114
347.954
347.483
346.256
342.971
336.656
337.101
343.657
346.562
347.522
347.885
348.036
348.092
348.1
348.086
348.064
348.041
348.02
348.003
347.99
347.982
347.979
347.98
347.989
348.004
348.026
348.054
348.083
348.103
348.099
348.042
347.881
347.5
346.515
343.592
337.047
337.528
344.162
346.785
347.589
347.884
348.013
348.07
348.089
348.087
348.074
348.057
348.039
348.024
348.013
348.005
348.003
348.005
348.013
348.026
348.044
348.063
348.079
348.083
348.063
348
347.86
347.549
346.727
344.096
337.479
337.921
344.567
346.962
347.653
347.898
348.005
348.056
348.077
348.08
348.073
348.061
348.048
348.035
348.025
348.019
348.017
348.019
348.026
348.036
348.049
348.061
348.068
348.064
348.039
347.981
347.863
347.605
346.903
344.508
337.882
338.259
344.888
347.103
347.711
347.919
348.009
348.051
348.07
348.074
348.07
348.062
348.051
348.041
348.033
348.028
348.026
348.028
348.033
348.04
348.049
348.056
348.058
348.051
348.028
347.978
347.88
347.663
347.05
344.84
338.229
338.543
345.14
347.216
347.763
347.943
348.018
348.053
348.067
348.071
348.068
348.061
348.053
348.045
348.039
348.034
348.033
348.034
348.037
348.042
348.048
348.052
348.053
348.045
348.026
347.985
347.904
347.719
347.17
345.102
338.521
338.77
345.331
347.304
347.808
347.967
348.03
348.058
348.068
348.07
348.067
348.062
348.055
348.049
348.043
348.039
348.038
348.038
348.041
348.044
348.048
348.051
348.051
348.045
348.03
347.998
347.931
347.769
347.266
345.302
338.754
338.941
345.47
347.369
347.843
347.988
348.043
348.064
348.071
348.071
348.068
348.063
348.057
348.051
348.047
348.044
348.042
348.042
348.044
348.046
348.049
348.051
348.052
348.048
348.037
348.013
347.956
347.809
347.338
345.448
338.928
339.054
345.561
347.413
347.867
348.004
348.053
348.071
348.075
348.074
348.07
348.064
348.059
348.054
348.05
348.047
348.046
348.046
348.047
348.049
348.051
348.053
348.054
348.053
348.045
348.025
347.975
347.838
347.386
345.543
339.045
339.112
345.607
347.435
347.881
348.013
348.06
348.075
348.078
348.076
348.071
348.066
348.061
348.056
348.052
348.05
348.048
348.048
348.049
348.051
348.054
348.056
348.058
348.057
348.051
348.033
347.986
347.854
347.412
345.591
339.103
339.113
345.609
347.438
347.883
348.016
348.062
348.077
348.08
348.078
348.073
348.068
348.062
348.058
348.054
348.051
348.05
348.05
348.051
348.053
348.056
348.059
348.06
348.06
348.054
348.037
347.99
347.858
347.415
345.593
339.104
339.058
345.567
347.419
347.874
348.011
348.059
348.077
348.081
348.079
348.075
348.069
348.064
348.059
348.055
348.052
348.051
348.051
348.053
348.055
348.058
348.061
348.063
348.062
348.055
348.035
347.985
347.848
347.395
345.549
339.048
338.947
345.479
347.38
347.854
347.999
348.053
348.074
348.081
348.08
348.076
348.071
348.065
348.059
348.055
348.052
348.051
348.051
348.054
348.057
348.061
348.064
348.066
348.063
348.054
348.03
347.973
347.826
347.353
345.459
338.935
338.778
345.344
347.318
347.822
347.982
348.044
348.071
348.081
348.082
348.079
348.072
348.065
348.059
348.054
348.05
348.049
348.05
348.054
348.059
348.064
348.068
348.07
348.066
348.052
348.022
347.955
347.793
347.288
345.319
338.764
338.553
345.154
347.234
347.781
347.961
348.036
348.069
348.083
348.086
348.082
348.075
348.066
348.058
348.052
348.048
348.047
348.048
348.053
348.06
348.067
348.073
348.076
348.071
348.054
348.015
347.936
347.75
347.2
345.124
338.534
338.27
344.905
347.124
347.733
347.94
348.029
348.071
348.088
348.091
348.086
348.077
348.066
348.056
348.048
348.043
348.042
348.045
348.051
348.06
348.071
348.08
348.085
348.081
348.061
348.014
347.918
347.702
347.087
344.869
338.247
337.933
344.585
346.985
347.678
347.922
348.029
348.079
348.098
348.099
348.09
348.077
348.063
348.051
348.041
348.035
348.034
348.037
348.045
348.058
348.072
348.087
348.097
348.097
348.076
348.022
347.907
347.652
346.948
344.544
337.904
337.541
344.182
346.811
347.618
347.912
348.039
348.094
348.111
348.106
348.091
348.073
348.055
348.04
348.029
348.022
348.021
348.024
348.034
348.049
348.068
348.09
348.109
348.117
348.102
348.044
347.909
347.602
346.78
344.139
337.507
337.116
343.679
346.592
347.555
347.917
348.065
348.117
348.122
348.105
348.081
348.057
348.036
348.019
348.007
347.999
347.997
348
348.01
348.026
348.05
348.08
348.111
348.136
348.137
348.087
347.934
347.559
346.575
343.642
337.08
336.723
343.048
346.314
347.513
347.964
348.115
348.139
348.115
348.079
348.044
348.015
347.992
347.975
347.964
347.956
347.953
347.954
347.962
347.977
348.003
348.039
348.085
348.135
348.171
348.156
348.006
347.545
346.322
343.027
336.695
336.375
342.299
346.076
347.622
348.11
348.175
348.114
348.041
347.982
347.941
347.913
347.895
347.883
347.875
347.869
347.865
347.862
347.864
347.873
347.893
347.928
347.983
348.06
348.156
348.235
348.182
347.691
346.121
342.309
336.36
336.026
341.94
346.558
348.237
348.342
348.086
347.87
347.748
347.69
347.665
347.657
347.657
347.66
347.661
347.659
347.654
347.645
347.634
347.626
347.625
347.638
347.677
347.759
347.912
348.162
348.445
348.349
346.651
341.992
336.036
337.045
343.858
349.799
349.3
347.989
347.167
346.835
346.756
346.777
346.83
346.888
346.939
346.979
347.004
347.013
347.006
346.984
346.948
346.9
346.844
346.787
346.745
346.746
346.862
347.243
348.114
349.457
349.954
343.961
337.08
332.231
361.882
352.933
347.563
344.555
343.516
343.377
343.542
343.782
344.02
344.226
344.389
344.508
344.583
344.617
344.611
344.565
344.478
344.349
344.177
343.967
343.732
343.506
343.372
343.562
344.669
347.743
353.149
362.121
332.267
449.414
364.363
348.353
339.601
336.804
336.076
335.981
336.098
336.303
336.525
336.727
336.891
337.011
337.09
337.128
337.124
337.079
336.993
336.864
336.693
336.484
336.26
336.059
335.953
336.074
336.851
339.724
348.566
364.669
450.047
443.725
361.206
345.857
337.113
334.194
333.374
333.221
333.265
333.367
333.469
333.557
333.631
333.69
333.732
333.756
333.762
333.749
333.718
333.67
333.607
333.527
333.429
333.323
333.261
333.37
334.102
336.884
345.476
360.698
442.768
332.184
359.787
351.821
346.074
342.321
340.747
340.394
340.549
340.856
341.17
341.44
341.655
341.816
341.924
341.981
341.988
341.947
341.855
341.709
341.506
341.243
340.926
340.598
340.397
340.671
342.143
345.802
351.51
359.468
332.192
336.009
343.196
349.27
348.721
346.771
345.378
344.863
344.88
345.097
345.342
345.552
345.715
345.832
345.909
345.95
345.958
345.933
345.872
345.768
345.613
345.402
345.144
344.896
344.824
345.267
346.593
348.512
349.086
343.099
335.979
333.911
340.14
345.282
347.591
347.736
347.282
346.984
346.929
347.014
347.14
347.259
347.352
347.42
347.464
347.49
347.498
347.487
347.456
347.398
347.308
347.183
347.037
346.919
346.929
347.18
347.603
347.462
345.194
340.099
333.908
333.927
339.758
344.096
346.631
347.574
347.724
347.681
347.666
347.708
347.779
347.853
347.914
347.96
347.991
348.009
348.016
348.009
347.988
347.948
347.886
347.804
347.714
347.646
347.633
347.652
347.495
346.567
344.069
339.768
333.964
334.124
340.319
344.331
346.558
347.493
347.811
347.901
347.936
347.975
348.024
348.075
348.119
348.155
348.179
348.194
348.199
348.193
348.175
348.143
348.096
348.037
347.974
347.919
347.869
347.772
347.46
346.545
344.353
340.37
334.181
334.308
340.977
344.925
346.819
347.575
347.876
347.995
348.051
348.091
348.13
348.168
348.203
348.231
348.252
348.264
348.267
348.262
348.246
348.219
348.183
348.138
348.091
348.042
347.982
347.865
347.577
346.843
344.978
341.05
334.372
334.484
341.555
345.44
347.086
347.703
347.95
348.059
348.114
348.152
348.184
348.214
348.241
348.263
348.279
348.289
348.292
348.287
348.274
348.253
348.225
348.192
348.156
348.116
348.062
347.961
347.728
347.133
345.506
341.632
334.543
334.658
342.036
345.813
347.285
347.811
348.017
348.109
348.157
348.189
348.214
348.237
348.258
348.275
348.287
348.295
348.297
348.293
348.283
348.268
348.247
348.224
348.198
348.168
348.124
348.042
347.85
347.34
345.88
342.106
334.708
334.824
342.43
346.077
347.418
347.885
348.065
348.145
348.187
348.213
348.233
348.25
348.265
348.278
348.287
348.293
348.295
348.292
348.285
348.274
348.26
348.244
348.227
348.204
348.168
348.097
347.928
347.472
346.137
342.488
334.864
334.973
342.743
346.262
347.503
347.93
348.095
348.169
348.206
348.228
348.244
348.256
348.267
348.277
348.284
348.288
348.29
348.288
348.284
348.276
348.267
348.257
348.245
348.227
348.195
348.129
347.972
347.552
346.312
342.788
335.003
335.098
342.982
346.39
347.556
347.955
348.112
348.182
348.217
348.237
348.249
348.259
348.267
348.274
348.279
348.283
348.284
348.283
348.281
348.276
348.271
348.264
348.255
348.239
348.209
348.144
347.993
347.598
346.43
343.016
335.121
335.195
343.154
346.476
347.589
347.968
348.119
348.188
348.222
348.241
348.252
348.26
348.266
348.271
348.275
348.278
348.279
348.279
348.278
348.275
348.272
348.267
348.259
348.244
348.214
348.15
348.002
347.624
346.508
343.18
335.213
335.261
343.265
346.528
347.606
347.974
348.122
348.19
348.224
348.242
348.252
348.259
348.264
348.269
348.272
348.274
348.275
348.276
348.275
348.273
348.271
348.267
348.26
348.245
348.215
348.15
348.004
347.637
346.555
343.286
335.276
335.294
343.318
346.551
347.613
347.976
348.122
348.19
348.224
348.242
348.252
348.258
348.263
348.267
348.27
348.272
348.273
348.273
348.273
348.271
348.269
348.266
348.259
348.244
348.213
348.148
348.003
347.641
346.576
343.337
335.307
335.293
343.316
346.55
347.612
347.974
348.12
348.188
348.222
348.24
348.251
348.257
348.262
348.266
348.269
348.271
348.272
348.272
348.271
348.27
348.268
348.264
348.256
348.241
348.21
348.145
348.001
347.638
346.573
343.335
335.305
335.257
343.26
346.522
347.601
347.97
348.118
348.186
348.22
348.238
348.249
348.256
348.261
348.266
348.269
348.271
348.272
348.272
348.271
348.269
348.266
348.261
348.253
348.238
348.207
348.142
347.996
347.628
346.547
343.28
335.271
335.188
343.146
346.467
347.58
347.961
348.112
348.181
348.216
348.235
348.246
348.255
348.261
348.266
348.27
348.273
348.274
348.273
348.271
348.267
348.263
348.257
348.248
348.233
348.201
348.136
347.988
347.609
346.495
343.169
335.205
335.089
342.972
346.379
347.546
347.945
348.102
348.173
348.209
348.229
348.242
348.252
348.26
348.267
348.272
348.276
348.276
348.275
348.271
348.266
348.259
348.251
348.24
348.223
348.191
348.125
347.973
347.577
346.411
343
335.109
334.963
342.731
346.248
347.49
347.917
348.083
348.157
348.195
348.218
348.234
348.247
348.259
348.268
348.275
348.279
348.28
348.278
348.272
348.263
348.253
348.241
348.226
348.206
348.172
348.103
347.944
347.524
346.285
342.766
334.987
334.813
342.417
346.062
347.402
347.869
348.05
348.131
348.174
348.201
348.221
348.239
348.255
348.268
348.277
348.283
348.284
348.28
348.271
348.259
348.243
348.225
348.205
348.179
348.14
348.065
347.894
347.436
346.103
342.459
334.843
334.646
342.023
345.796
347.266
347.792
347.999
348.092
348.142
348.175
348.202
348.226
348.247
348.264
348.276
348.283
348.285
348.279
348.268
348.251
348.229
348.203
348.174
348.14
348.092
348.005
347.809
347.296
345.837
342.07
334.681
334.471
341.54
345.42
347.064
347.68
347.929
348.039
348.097
348.137
348.17
348.202
348.229
348.251
348.267
348.276
348.278
348.272
348.257
348.235
348.205
348.17
348.131
348.087
348.028
347.92
347.681
347.081
345.455
341.588
334.511
334.294
340.959
344.901
346.791
347.548
347.85
347.973
348.032
348.075
348.117
348.157
348.192
348.22
348.239
348.251
348.253
348.246
348.229
348.201
348.162
348.116
348.066
348.014
347.947
347.822
347.526
346.784
344.918
340.998
334.333
334.107
340.295
344.3
346.523
347.46
347.783
347.878
347.918
347.96
348.011
348.064
348.109
348.144
348.167
348.181
348.184
348.177
348.157
348.124
348.075
348.015
347.951
347.893
347.837
347.732
347.408
346.482
344.286
340.31
334.136
333.905
339.724
344.055
346.589
347.538
347.695
347.659
347.65
347.696
347.77
347.844
347.905
347.95
347.979
347.996
348.001
347.993
347.97
347.929
347.866
347.784
347.694
347.625
347.608
347.62
347.449
346.504
343.996
339.698
333.91
333.878
340.095
345.232
347.545
347.7
347.256
346.966
346.918
347.006
347.134
347.253
347.345
347.411
347.453
347.477
347.483
347.471
347.438
347.379
347.288
347.164
347.019
346.903
346.914
347.163
347.576
347.413
345.121
340.019
333.844
335.967
343.142
349.215
348.676
346.739
345.358
344.853
344.876
345.094
345.339
345.549
345.709
345.824
345.899
345.938
345.945
345.918
345.855
345.75
345.595
345.384
345.128
344.884
344.818
345.266
346.592
348.495
349.035
343.015
335.901
332.139
359.708
351.765
346.035
342.297
340.736
340.392
340.551
340.859
341.171
341.439
341.652
341.81
341.916
341.972
341.978
341.935
341.841
341.695
341.491
341.227
340.911
340.587
340.391
340.676
342.159
345.822
351.511
359.416
332.076
443.527
361.133
345.81
337.087
334.183
333.372
333.223
333.268
333.369
333.469
333.556
333.628
333.686
333.726
333.749
333.754
333.74
333.708
333.659
333.595
333.515
333.417
333.312
333.253
333.367
334.113
336.915
345.524
360.746
442.713
444.865
362.599
347.332
337.926
334.021
332.381
331.693
331.424
331.348
331.349
331.375
331.408
331.436
331.454
331.461
331.454
331.434
331.402
331.361
331.317
331.281
331.278
331.365
331.669
332.432
334.201
338.292
347.888
363.292
446.139
331.19
359.768
352.626
347.002
342.645
340.138
338.943
338.502
338.441
338.545
338.702
338.857
338.983
339.068
339.107
339.097
339.04
338.937
338.795
338.627
338.465
338.369
338.462
338.968
340.263
342.892
347.355
353.023
360.196
331.173
335.508
342.921
349.458
349.301
347.203
345.129
343.779
343.118
342.909
342.94
343.072
343.223
343.354
343.444
343.484
343.473
343.411
343.3
343.152
342.99
342.861
342.851
343.107
343.84
345.276
347.424
349.554
349.681
343.035
335.539
332.853
339.334
344.819
347.673
348.087
347.39
346.587
346.057
345.813
345.757
345.794
345.861
345.924
345.967
345.984
345.974
345.937
345.876
345.798
345.724
345.694
345.778
346.07
346.662
347.523
348.25
347.825
344.921
339.386
332.877
332.327
338.197
342.814
345.976
347.514
347.836
347.647
347.381
347.191
347.091
347.054
347.049
347.056
347.061
347.061
347.053
347.038
347.019
347.005
347.01
347.058
347.182
347.408
347.714
347.931
347.612
346.05
342.846
338.194
332.297
332.244
338.202
342.363
345.306
347.019
347.709
347.857
347.801
347.705
347.627
347.576
347.547
347.531
347.521
347.514
347.507
347.503
347.504
347.517
347.549
347.611
347.707
347.826
347.901
347.76
347.059
345.318
342.337
338.15
332.183
332.29
338.558
342.6
345.333
346.885
347.584
347.845
347.903
347.882
347.841
347.802
347.771
347.75
347.736
347.726
347.722
347.723
347.731
347.751
347.784
347.831
347.884
347.916
347.863
347.597
346.877
345.294
342.53
338.475
332.218
332.395
338.992
343.05
345.622
346.945
347.549
347.816
347.916
347.938
347.925
347.902
347.879
347.86
347.846
347.838
347.834
347.837
347.847
347.864
347.889
347.916
347.933
347.915
347.812
347.534
346.906
345.552
342.96
338.901
332.324
332.53
339.423
343.523
345.938
347.063
347.57
347.808
347.914
347.954
347.959
347.949
347.934
347.919
347.908
347.9
347.898
347.901
347.909
347.922
347.937
347.948
347.943
347.902
347.789
347.537
347.01
345.86
343.432
339.339
332.468
332.67
339.819
343.949
346.207
347.182
347.612
347.816
347.915
347.959
347.973
347.971
347.962
347.952
347.943
347.937
347.935
347.937
347.943
347.951
347.959
347.959
347.943
347.895
347.788
347.571
347.126
346.135
343.868
339.749
332.619
332.799
340.162
344.305
346.421
347.286
347.658
347.834
347.921
347.964
347.98
347.982
347.977
347.97
347.963
347.958
347.957
347.958
347.962
347.967
347.969
347.964
347.944
347.896
347.801
347.615
347.233
346.358
344.239
340.106
332.759
332.909
340.441
344.584
346.584
347.371
347.7
347.854
347.931
347.969
347.985
347.989
347.986
347.98
347.975
347.971
347.969
347.97
347.973
347.975
347.975
347.968
347.947
347.904
347.82
347.659
347.323
346.532
344.532
340.398
332.877
332.994
340.652
344.786
346.704
347.436
347.735
347.872
347.941
347.974
347.989
347.993
347.991
347.986
347.982
347.978
347.977
347.977
347.979
347.98
347.979
347.971
347.953
347.914
347.84
347.697
347.394
346.66
344.745
340.619
332.969
333.054
340.794
344.917
346.781
347.48
347.761
347.887
347.949
347.979
347.992
347.995
347.994
347.99
347.986
347.983
347.981
347.981
347.982
347.983
347.982
347.975
347.958
347.923
347.857
347.726
347.443
346.744
344.883
340.767
333.032
333.085
340.867
344.981
346.82
347.503
347.774
347.895
347.954
347.982
347.994
347.997
347.996
347.992
347.988
347.985
347.984
347.984
347.985
347.985
347.984
347.978
347.962
347.93
347.867
347.742
347.469
346.786
344.951
340.843
333.065
333.086
340.869
344.983
346.821
347.504
347.776
347.896
347.955
347.983
347.995
347.998
347.996
347.993
347.989
347.986
347.985
347.985
347.986
347.987
347.986
347.979
347.964
347.932
347.869
347.745
347.471
346.788
344.954
340.845
333.067
333.058
340.799
344.922
346.786
347.484
347.764
347.89
347.952
347.982
347.995
347.998
347.996
347.993
347.989
347.986
347.984
347.985
347.986
347.987
347.986
347.98
347.964
347.93
347.864
347.734
347.451
346.752
344.89
340.773
333.037
333.001
340.66
344.793
346.711
347.443
347.742
347.878
347.946
347.98
347.994
347.997
347.995
347.991
347.986
347.983
347.982
347.983
347.985
347.987
347.987
347.98
347.963
347.925
347.853
347.711
347.408
346.674
344.758
340.63
332.978
332.918
340.451
344.594
346.594
347.38
347.709
347.862
347.939
347.976
347.992
347.995
347.992
347.986
347.981
347.977
347.976
347.978
347.981
347.985
347.986
347.98
347.962
347.92
347.838
347.679
347.343
346.552
344.551
340.415
332.891
332.81
340.174
344.317
346.433
347.298
347.669
347.845
347.932
347.973
347.989
347.991
347.985
347.978
347.971
347.967
347.965
347.968
347.973
347.979
347.983
347.98
347.962
347.917
347.824
347.641
347.261
346.387
344.266
340.13
332.778
332.682
339.832
343.962
346.221
347.196
347.626
347.83
347.928
347.971
347.984
347.981
347.972
347.961
347.952
347.947
347.945
347.948
347.956
347.966
347.975
347.978
347.965
347.92
347.817
347.604
347.162
346.172
343.903
339.78
332.644
332.542
339.436
343.536
345.954
347.08
347.588
347.825
347.93
347.968
347.972
347.96
347.945
347.93
347.918
347.911
347.91
347.914
347.923
347.938
347.955
347.969
347.967
347.93
347.822
347.576
347.054
345.908
343.477
339.379
332.499
332.408
339.006
343.067
345.641
346.967
347.571
347.837
347.935
347.954
347.939
347.915
347.891
347.871
347.857
347.849
347.847
347.851
347.863
347.882
347.909
347.938
347.959
347.946
347.85
347.579
346.959
345.61
343.017
338.951
332.362
332.306
338.577
342.622
345.36
346.914
347.612
347.87
347.925
347.9
347.855
347.814
347.783
347.761
347.747
347.739
347.735
347.738
347.748
347.769
347.804
347.854
347.91
347.947
347.902
347.645
346.936
345.361
342.597
338.536
332.265
332.263
338.229
342.395
345.343
347.056
347.742
347.885
347.824
347.723
347.641
347.588
347.557
347.541
347.532
347.526
347.522
347.519
347.522
347.536
347.57
347.633
347.732
347.855
347.937
347.807
347.12
345.391
342.415
338.222
332.239
332.354
338.235
342.857
346.022
347.558
347.874
347.676
347.402
347.205
347.102
347.063
347.058
347.065
347.072
347.074
347.068
347.054
347.037
347.025
347.031
347.08
347.204
347.433
347.743
347.97
347.668
346.125
342.933
338.279
332.363
332.892
339.383
344.874
347.728
348.136
347.429
346.613
346.073
345.822
345.762
345.799
345.867
345.932
345.977
345.997
345.989
345.953
345.894
345.818
345.745
345.715
345.798
346.089
346.68
347.546
348.288
347.886
345.007
339.481
332.956
335.553
342.981
349.526
349.362
347.252
345.163
343.8
343.128
342.913
342.942
343.074
343.227
343.36
343.453
343.496
343.487
343.426
343.317
343.171
343.01
342.882
342.871
343.123
343.851
345.285
347.437
349.585
349.746
343.134
335.633
331.235
359.873
352.706
347.066
342.69
340.166
338.957
338.508
338.444
338.547
338.706
338.862
338.99
339.078
339.118
339.111
339.055
338.954
338.813
338.647
338.486
338.389
338.479
338.979
340.265
342.885
347.348
353.036
360.263
331.298
445.142
362.716
347.419
337.983
334.053
332.397
331.7
331.427
331.351
331.352
331.38
331.414
331.444
331.464
331.472
331.467
331.448
331.417
331.377
331.335
331.3
331.298
331.384
331.684
332.438
334.192
338.263
347.845
363.257
446.233
435.579
357.721
343.791
335.57
332.534
331.367
330.899
330.717
330.664
330.657
330.668
330.684
330.701
330.715
330.726
330.732
330.734
330.731
330.725
330.719
330.715
330.724
330.769
330.924
331.333
332.378
335.214
343.203
356.925
434.116
331.178
356.452
349.653
344.441
340.665
338.636
337.73
337.423
337.398
337.487
337.608
337.725
337.822
337.892
337.932
337.94
337.916
337.862
337.78
337.675
337.56
337.465
337.463
337.713
338.522
340.421
344.07
349.22
355.973
331.187
335.052
341.896
347.597
347.264
345.327
343.504
342.353
341.812
341.661
341.707
341.829
341.963
342.079
342.163
342.212
342.222
342.194
342.128
342.028
341.904
341.781
341.716
341.825
342.296
343.358
345.096