/*--------------------------------*- C++ -*----------------------------------*\
| =========                 |                                                 |
| \\      /  F ield         | OpenFOAM: The Open Source CFD Toolbox           |
|  \\    /   O peration     | Version:  2312                                  |
|   \\  /    A nd           | Website:  www.openfoam.com                      |
|    \\/     M anipulation  |                                                 |
\*---------------------------------------------------------------------------*/
FoamFile
{
    version     2.0;
    format      ascii;
    arch        "LSB;label=32;scalar=64";
    class       volVectorField;
    location    "600";
    object      U;
}
// * * * * * * * * * * * * * * * * * * * * * * * * * * * * * * * * * * * * * //

dimensions      [0 1 -1 0 0 0 0];

internalField   nonuniform List<vector> 
27000
(
(-6.97584e-05 0.000109425 0.107433)
(-0.000219693 0.000228131 0.0763609)
(-0.000119157 0.000235298 0.0818258)
(-9.00258e-05 0.000211585 0.0834789)
(-5.49122e-05 0.000203134 0.0853782)
(-3.27978e-05 0.000201064 0.0868526)
(-1.57686e-05 0.000201549 0.0879463)
(-3.06231e-06 0.000203075 0.0888163)
(5.44813e-06 0.000205135 0.0895389)
(1.0055e-05 0.000207407 0.0901132)
(1.14461e-05 0.000209606 0.0905565)
(1.04507e-05 0.000211634 0.0908959)
(7.7608e-06 0.000213238 0.091145)
(3.9975e-06 0.000214273 0.0913091)
(-3.39482e-07 0.00021471 0.0913923)
(-4.79229e-06 0.000214526 0.091397)
(-8.9153e-06 0.000213741 0.0913233)
(-1.22427e-05 0.000212371 0.091169)
(-1.42342e-05 0.000210495 0.0909307)
(-1.42428e-05 0.000208287 0.0906025)
(-1.15262e-05 0.000206005 0.0901686)
(-5.24956e-06 0.000203812 0.0896019)
(5.28634e-06 0.000202102 0.0888842)
(2.02536e-05 0.000201355 0.0880159)
(3.96344e-05 0.000202136 0.0869185)
(6.38873e-05 0.000206032 0.0854332)
(9.98441e-05 0.000215876 0.0835129)
(0.000129254 0.000241384 0.0818265)
(0.00022829 0.000234713 0.0763198)
(7.47915e-05 0.000113845 0.107328)
(0.000304481 -0.000138826 0.0626694)
(0.000123349 -4.58019e-05 0.0835754)
(8.91075e-05 0.000161813 0.0915934)
(4.88916e-05 0.000216194 0.0943915)
(4.13451e-05 0.000239975 0.0957786)
(4.30094e-05 0.000254265 0.0967347)
(4.49359e-05 0.000265631 0.0974199)
(4.5851e-05 0.000275403 0.0979222)
(4.49881e-05 0.000283668 0.098299)
(4.19254e-05 0.000290431 0.0985799)
(3.66755e-05 0.000295794 0.0987862)
(2.95992e-05 0.00029987 0.0989365)
(2.11804e-05 0.000302753 0.0990438)
(1.18629e-05 0.000304535 0.0991151)
(2.0775e-06 0.000305272 0.0991542)
(-7.76883e-06 0.000305022 0.099163)
(-1.72729e-05 0.000303785 0.0991414)
(-2.60238e-05 0.000301553 0.0990872)
(-3.35992e-05 0.00029828 0.0989961)
(-3.9548e-05 0.000293929 0.09886)
(-4.34338e-05 0.000288456 0.098664)
(-4.49805e-05 0.00028185 0.0983872)
(-4.42651e-05 0.000274153 0.098006)
(-4.18355e-05 0.00026549 0.0974879)
(-3.86454e-05 0.000255795 0.0967724)
(-3.60928e-05 0.00024357 0.0957715)
(-4.35017e-05 0.000221748 0.0943294)
(-8.54005e-05 0.000167858 0.0914808)
(-0.00012299 -4.28995e-05 0.0834504)
(-0.000312295 -0.000144551 0.0626256)
(9.829e-05 0.000137935 0.0806209)
(0.000120507 0.000166274 0.0899206)
(0.000155734 0.000222601 0.0967153)
(0.000141457 0.000254217 0.0983779)
(0.000121535 0.000272841 0.0989404)
(0.000106104 0.00028502 0.0992741)
(9.35166e-05 0.000294252 0.0995332)
(8.25929e-05 0.000301997 0.0997354)
(7.24818e-05 0.000308543 0.0998894)
(6.23846e-05 0.000313908 0.100004)
(5.18071e-05 0.000318085 0.100087)
(4.05691e-05 0.000321166 0.100147)
(2.87184e-05 0.000323246 0.100189)
(1.64239e-05 0.000324443 0.100219)
(3.89528e-06 0.000324851 0.100238)
(-8.62574e-06 0.00032452 0.100248)
(-2.08912e-05 0.000323475 0.100247)
(-3.26702e-05 0.000321687 0.100234)
(-4.37759e-05 0.000319114 0.100206)
(-5.40979e-05 0.0003157 0.100156)
(-6.36641e-05 0.000311416 0.100076)
(-7.27518e-05 0.000306285 0.0999565)
(-8.19845e-05 0.000300399 0.0997858)
(-9.22548e-05 0.000293789 0.0995538)
(-0.000104512 0.000286059 0.0992521)
(-0.000119998 0.000275484 0.0988678)
(-0.000140542 0.000257845 0.0982579)
(-0.000156271 0.000225477 0.0965754)
(-0.000123833 0.000165626 0.0898266)
(-0.000105193 0.000130806 0.0806074)
(0.000143966 5.67679e-05 0.0840028)
(0.000151958 0.000147197 0.093982)
(0.000177791 0.000226157 0.0981444)
(0.00016937 0.000252172 0.0991971)
(0.000153744 0.000266643 0.0995394)
(0.000135965 0.000276037 0.0997224)
(0.000118646 0.000283118 0.0998687)
(0.000102597 0.000289066 0.099995)
(8.77854e-05 0.000294213 0.1001)
(7.37836e-05 0.000298541 0.100182)
(6.01405e-05 0.000301973 0.100244)
(4.65503e-05 0.000304493 0.10029)
(3.28621e-05 0.000306169 0.100323)
(1.90472e-05 0.000307086 0.100346)
(5.16835e-06 0.000307333 0.100361)
(-8.6596e-06 0.000306973 0.10037)
(-2.23202e-05 0.000306026 0.10037)
(-3.57257e-05 0.000304486 0.100361)
(-4.88516e-05 0.000302317 0.100338)
(-6.17862e-05 0.000299505 0.100297)
(-7.4769e-05 0.000296065 0.100232)
(-8.82076e-05 0.000292075 0.100137)
(-0.000102626 0.000287654 0.100009)
(-0.000118528 0.000282775 0.0998499)
(-0.000135977 0.000276915 0.0996654)
(-0.000154146 0.00026853 0.0994464)
(-0.000170436 0.000254311 0.0990822)
(-0.000180027 0.00022691 0.0980385)
(-0.000156448 0.000144122 0.0939332)
(-0.000150245 4.87107e-05 0.0840163)
(0.000138446 8.84258e-05 0.0865537)
(0.000171668 0.000156764 0.0960109)
(0.000197125 0.000218407 0.0989217)
(0.000187526 0.000241384 0.099537)
(0.000172337 0.000253535 0.099736)
(0.000154309 0.000261063 0.0998437)
(0.000135458 0.000266422 0.0999343)
(0.000117099 0.00027075 0.100021)
(9.96875e-05 0.000274469 0.100101)
(8.31655e-05 0.000277631 0.10017)
(6.72971e-05 0.000280177 0.100226)
(5.18411e-05 0.000282062 0.100269)
(3.65944e-05 0.000283293 0.100301)
(2.14477e-05 0.000283923 0.100323)
(6.36529e-06 0.000284021 0.100338)
(-8.65006e-06 0.000283644 0.100345)
(-2.35787e-05 0.000282818 0.100343)
(-3.84334e-05 0.000281554 0.100331)
(-5.32976e-05 0.000279852 0.100305)
(-6.83449e-05 0.000277727 0.100262)
(-8.38441e-05 0.000275238 0.100199)
(-0.000100106 0.000272464 0.100115)
(-0.00011742 0.000269457 0.100011)
(-0.000135853 0.00026604 0.099897)
(-0.000154931 0.000261599 0.0997797)
(-0.000173306 0.000254651 0.099654)
(-0.00018889 0.000242337 0.0994542)
(-0.000199119 0.000217885 0.0988639)
(-0.000175032 0.00015316 0.0960063)
(-0.000142508 8.14839e-05 0.0865884)
(0.000144237 9.04356e-05 0.0883856)
(0.000187533 0.000160956 0.0972)
(0.000211989 0.000209216 0.0993739)
(0.000201639 0.000226483 0.0997619)
(0.000186051 0.000236076 0.0998618)
(0.000167682 0.000242008 0.0999118)
(0.000148162 0.000246106 0.0999603)
(0.000128656 0.000249252 0.100016)
(0.000109723 0.00025184 0.100074)
(9.15146e-05 0.00025399 0.10013)
(7.39734e-05 0.00025571 0.100179)
(5.69501e-05 0.00025697 0.100219)
(4.02867e-05 0.000257761 0.10025)
(2.38446e-05 0.000258114 0.100272)
(7.53491e-06 0.000258073 0.100286)
(-8.69955e-06 0.000257685 0.100291)
(-2.49132e-05 0.00025699 0.100287)
(-4.11831e-05 0.00025601 0.100272)
(-5.76361e-05 0.000254771 0.100244)
(-7.44525e-05 0.000253311 0.100201)
(-9.18461e-05 0.000251683 0.100143)
(-0.000109997 0.000249923 0.100073)
(-0.000128976 0.000247965 0.0999957)
(-0.000148617 0.000245565 0.0999214)
(-0.000168312 0.000242114 0.0998588)
(-0.000186838 0.000236485 0.0998056)
(-0.000202554 0.000226577 0.099718)
(-0.000213095 0.000208072 0.0993606)
(-0.00018942 0.000157572 0.0972298)
(-0.000146393 8.4999e-05 0.0884313)
(0.000150282 9.16216e-05 0.089751)
(0.000202033 0.00015672 0.097945)
(0.000224693 0.000195433 0.0996519)
(0.000213536 0.000208733 0.0999178)
(0.000197323 0.000216067 0.0999605)
(0.000178553 0.000220635 0.0999702)
(0.000158607 0.000223716 0.0999861)
(0.000138427 0.000225968 0.100015)
(0.000118537 0.000227689 0.100053)
(9.91465e-05 0.000229034 0.100095)
(8.03023e-05 0.000230049 0.100135)
(6.1947e-05 0.000230747 0.100171)
(4.39677e-05 0.000231131 0.100199)
(2.62476e-05 0.000231219 0.10022)
(8.67969e-06 0.000231051 0.100233)
(-8.82355e-06 0.000230668 0.100237)
(-2.63506e-05 0.000230109 0.100231)
(-4.40058e-05 0.000229412 0.100215)
(-6.19163e-05 0.00022861 0.100187)
(-8.02315e-05 0.000227741 0.100148)
(-9.90828e-05 0.000226826 0.100099)
(-0.00011854 0.00022584 0.100046)
(-0.000138541 0.000224656 0.0999952)
(-0.000158839 0.000222993 0.0999564)
(-0.000178874 0.000220376 0.0999368)
(-0.000197653 0.000215979 0.0999332)
(-0.000213807 0.000208354 0.0999085)
(-0.000224931 0.000194198 0.0996713)
(-0.000202698 0.000154097 0.0979948)
(-0.000151069 8.80418e-05 0.0897996)
(0.000156798 8.93978e-05 0.090776)
(0.000215078 0.000148057 0.0984338)
(0.000235767 0.000178715 0.099826)
(0.000223831 0.000188909 0.100022)
(0.000206962 0.000194458 0.100035)
(0.000187782 0.000197872 0.100021)
(0.000167487 0.000200111 0.100014)
(0.000146857 0.00020163 0.100022)
(0.000126305 0.000202671 0.100042)
(0.000106054 0.000203369 0.100071)
(8.6185e-05 0.000203809 0.100102)
(6.6696e-05 0.00020403 0.100132)
(4.75233e-05 0.000204056 0.100157)
(2.8578e-05 0.000203914 0.100176)
(9.76725e-06 0.00020364 0.100187)
(-9.00191e-06 0.000203272 0.10019)
(-2.78212e-05 0.000202853 0.100183)
(-4.67876e-05 0.000202422 0.100168)
(-6.60074e-05 0.000202011 0.100143)
(-8.55783e-05 0.000201639 0.10011)
(-0.000105565 0.000201296 0.100073)
(-0.000125958 0.00020091 0.100037)
(-0.000146649 0.000200324 0.100009)
(-0.000167382 0.000199279 0.0999983)
(-0.000187702 0.000197405 0.100008)
(-0.000206826 0.000194135 0.100032)
(-0.000223561 0.000188441 0.100038)
(-0.000235398 0.000177772 0.0998651)
(-0.000214967 0.000146451 0.0984909)
(-0.000156737 8.74615e-05 0.0908203)
(0.000163908 8.40242e-05 0.0915685)
(0.000226887 0.000135648 0.0987667)
(0.000245593 0.000159843 0.0999355)
(0.00023281 0.000167558 0.100088)
(0.000215287 0.000171658 0.100085)
(0.000195687 0.000174096 0.100059)
(0.000175089 0.00017561 0.100039)
(0.000154107 0.000176522 0.100034)
(0.000133074 0.000177015 0.100041)
(0.000112171 0.000177212 0.100058)
(9.14872e-05 0.000177202 0.100081)
(7.10444e-05 0.000177047 0.100104)
(5.08153e-05 0.000176789 0.100124)
(3.07435e-05 0.000176466 0.10014)
(1.07586e-05 0.000176114 0.10015)
(-9.21114e-06 0.000175776 0.100152)
(-2.92399e-05 0.000175489 0.100146)
(-4.94024e-05 0.000175291 0.100132)
(-6.97657e-05 0.000175203 0.100112)
(-9.03809e-05 0.000175228 0.100087)
(-0.00011126 0.000175326 0.100061)
(-0.00013236 0.000175404 0.10004)
(-0.000153558 0.000175299 0.100031)
(-0.000174644 0.000174793 0.100038)
(-0.000195269 0.000173608 0.100064)
(-0.000214804 0.000171359 0.100102)
(-0.000232215 0.000167277 0.10012)
(-0.000244908 0.000159422 0.0999835)
(-0.000226394 0.00013504 0.0988227)
(-0.000163436 8.33854e-05 0.0916056)
(0.000170811 7.58174e-05 0.0921854)
(0.00023736 0.000120165 0.0989998)
(0.000254225 0.000139111 0.100004)
(0.000240611 0.000144864 0.100126)
(0.000222442 0.000147792 0.100116)
(0.000202424 0.000149424 0.100085)
(0.000181541 0.000150332 0.100059)
(0.000160272 0.000150751 0.100045)
(0.000138864 0.000150818 0.100044)
(0.000117454 0.000150639 0.100052)
(9.61155e-05 0.000150302 0.100067)
(7.48782e-05 0.000149877 0.100085)
(5.37378e-05 0.000149419 0.100101)
(3.26658e-05 0.000148973 0.100114)
(1.16245e-05 0.000148581 0.100121)
(-9.43167e-06 0.000148282 0.100123)
(-3.05466e-05 0.000148113 0.100118)
(-5.17587e-05 0.000148104 0.100107)
(-7.30984e-05 0.000148267 0.100092)
(-9.45755e-05 0.000148587 0.100074)
(-0.000116171 0.00014901 0.100058)
(-0.000137824 0.000149435 0.100049)
(-0.000159434 0.000149715 0.100052)
(-0.000180839 0.000149667 0.10007)
(-0.000201777 0.000149093 0.100103)
(-0.000221781 0.000147714 0.100144)
(-0.000239886 0.000144947 0.100166)
(-0.000253459 0.000139286 0.100054)
(-0.000236756 0.000120411 0.0990504)
(-0.00017022 7.60891e-05 0.0922157)
(0.000177021 6.53736e-05 0.0926544)
(0.000246319 0.000102204 0.0991631)
(0.000261597 0.00011678 0.100046)
(0.000247225 0.000120953 0.100146)
(0.000228478 0.000122936 0.100132)
(0.000208079 0.000123926 0.1001)
(0.000186935 0.000124349 0.100072)
(0.000165417 0.000124383 0.100054)
(0.000143706 0.000124134 0.100048)
(0.00012189 0.000123694 0.10005)
(0.000100023 0.000123141 0.10006)
(7.8131e-05 0.000122549 0.100072)
(5.62233e-05 0.000121973 0.100084)
(3.42977e-05 0.000121466 0.100094)
(1.23426e-05 0.000121068 0.100101)
(-9.65391e-06 0.000120819 0.100102)
(-3.17015e-05 0.000120752 0.100099)
(-5.38058e-05 0.000120886 0.100091)
(-7.59597e-05 0.000121228 0.10008)
(-9.81425e-05 0.00012175 0.100068)
(-0.000120317 0.000122396 0.10006)
(-0.000142422 0.000123069 0.100059)
(-0.00016438 0.000123639 0.100068)
(-0.000186078 0.000123965 0.100091)
(-0.000207333 0.000123887 0.100126)
(-0.000227773 0.000123204 0.100166)
(-0.000246518 0.000121481 0.100188)
(-0.000260897 0.000117522 0.100093)
(-0.000245758 0.000103117 0.0992069)
(-0.000176465 6.62343e-05 0.0926791)
(0.000182261 5.31841e-05 0.0930008)
(0.000253647 8.22866e-05 0.0992751)
(0.000267649 9.30973e-05 0.100069)
(0.000252637 9.59844e-05 0.100154)
(0.000233405 9.72078e-05 0.100138)
(0.000212683 9.7687e-05 0.100106)
(0.000191311 9.77332e-05 0.100078)
(0.000169584 9.74822e-05 0.100059)
(0.000147623 9.70186e-05 0.10005)
(0.000125483 9.64167e-05 0.10005)
(0.000103191 9.57485e-05 0.100055)
(8.07702e-05 9.50776e-05 0.100063)
(5.82382e-05 9.4462e-05 0.100072)
(3.56104e-05 9.39487e-05 0.10008)
(1.29016e-05 9.35793e-05 0.100085)
(-9.87066e-06 9.3389e-05 0.100087)
(-3.2687e-05 9.3404e-05 0.100085)
(-5.55184e-05 9.36406e-05 0.100079)
(-7.8331e-05 9.4095e-05 0.100072)
(-0.000101082 9.47406e-05 0.100066)
(-0.00012372 9.55203e-05 0.100063)
(-0.000146194 9.63499e-05 0.100066)
(-0.000168445 9.71229e-05 0.100079)
(-0.000190402 9.7723e-05 0.100103)
(-0.000211936 9.80298e-05 0.100137)
(-0.000232755 9.78848e-05 0.100174)
(-0.000252035 9.69612e-05 0.100195)
(-0.000267087 9.43315e-05 0.100112)
(-0.000253208 8.36794e-05 0.0993125)
(-0.000181806 5.44001e-05 0.093021)
(0.000186362 3.96937e-05 0.0932444)
(0.000259271 6.08742e-05 0.0993489)
(0.00027232 6.83267e-05 0.100081)
(0.000256821 7.01283e-05 0.100155)
(0.000237217 7.07391e-05 0.100137)
(0.000216242 7.08145e-05 0.100106)
(0.000194686 7.05795e-05 0.100079)
(0.000172791 7.01318e-05 0.100061)
(0.000150632 6.95396e-05 0.100051)
(0.000128235 6.88626e-05 0.100048)
(0.000105614 6.81607e-05 0.100051)
(8.27825e-05 6.74888e-05 0.100057)
(5.97654e-05 6.68961e-05 0.100064)
(3.65913e-05 6.64252e-05 0.10007)
(1.32961e-05 6.61121e-05 0.100074)
(-1.00808e-05 6.5986e-05 0.100076)
(-3.34918e-05 6.60682e-05 0.100074)
(-5.68861e-05 6.63696e-05 0.100071)
(-8.02063e-05 6.68831e-05 0.100067)
(-0.000103393 6.75841e-05 0.100064)
(-0.000126393 6.84226e-05 0.100064)
(-0.000149156 6.933e-05 0.10007)
(-0.000171642 7.02211e-05 0.100084)
(-0.000193807 7.10045e-05 0.100107)
(-0.000215566 7.15842e-05 0.100139)
(-0.000236678 7.18389e-05 0.100174)
(-0.000256363 7.15265e-05 0.100194)
(-0.000271924 6.99634e-05 0.10012)
(-0.000258981 6.26029e-05 0.0993812)
(-0.00018603 4.11086e-05 0.0932613)
(0.000189218 2.53006e-05 0.0933991)
(0.000263143 3.84058e-05 0.0993931)
(0.000275569 4.27533e-05 0.100086)
(0.000259744 4.36045e-05 0.100152)
(0.000239892 4.37003e-05 0.100134)
(0.000218743 4.34545e-05 0.100104)
(0.000197057 4.30103e-05 0.100078)
(0.000175036 4.24376e-05 0.10006)
(0.00015273 4.17856e-05 0.10005)
(0.000130146 4.1102e-05 0.100047)
(0.000107285 4.04315e-05 0.100048)
(8.41597e-05 3.98173e-05 0.100052)
(6.07964e-05 3.92973e-05 0.100058)
(3.72346e-05 3.89053e-05 0.100063)
(1.35231e-05 3.86692e-05 0.100066)
(-1.02802e-05 3.86114e-05 0.100068)
(-3.41118e-05 3.87478e-05 0.100067)
(-5.79017e-05 3.90837e-05 0.100065)
(-8.1579e-05 3.96142e-05 0.100063)
(-0.000105075 4.03163e-05 0.100061)
(-0.00012833 4.11538e-05 0.100063)
(-0.0001513 4.20735e-05 0.10007)
(-0.000173956 4.30123e-05 0.100085)
(-0.000196272 4.39004e-05 0.100107)
(-0.000218187 4.46645e-05 0.100137)
(-0.000239496 4.52142e-05 0.100169)
(-0.000259448 4.53823e-05 0.100189)
(-0.000275341 4.47191e-05 0.100122)
(-0.000263004 4.03697e-05 0.0994218)
(-0.000189001 2.68208e-05 0.093414)
(0.000190759 1.03628e-05 0.0934738)
(0.000265231 1.52915e-05 0.0994129)
(0.000277364 1.66736e-05 0.100087)
(0.000261382 1.66533e-05 0.100149)
(0.000241406 1.6295e-05 0.10013)
(0.000220166 1.57794e-05 0.100101)
(0.000198405 1.51765e-05 0.100075)
(0.000176306 1.45265e-05 0.100058)
(0.000153907 1.38639e-05 0.100048)
(0.000131205 1.32202e-05 0.100044)
(0.000108197 1.26259e-05 0.100045)
(8.48946e-05 1.21088e-05 0.100048)
(6.13261e-05 1.16946e-05 0.100053)
(3.75366e-05 1.14052e-05 0.100058)
(1.35834e-05 1.12592e-05 0.100061)
(-1.0467e-05 1.12714e-05 0.100062)
(-3.45402e-05 1.1451e-05 0.100062)
(-5.85581e-05 1.18015e-05 0.10006)
(-8.24414e-05 1.23171e-05 0.100059)
(-0.000106116 1.2984e-05 0.100058)
(-0.00012952 1.3777e-05 0.100061)
(-0.000152612 1.46622e-05 0.100068)
(-0.000175366 1.55978e-05 0.100082)
(-0.000197767 1.65357e-05 0.100104)
(-0.000219765 1.74241e-05 0.100133)
(-0.000241171 1.82023e-05 0.100165)
(-0.000261249 1.87759e-05 0.100185)
(-0.000277298 1.89184e-05 0.100121)
(-0.000265232 1.74329e-05 0.0994399)
(-0.000190643 1.19427e-05 0.0934878)
(0.000190948 -4.78371e-06 0.0934728)
(0.000265509 -8.07413e-06 0.0994109)
(0.000277683 -9.61004e-06 0.100084)
(0.000261713 -1.04717e-05 0.100146)
(0.000241738 -1.12584e-05 0.100127)
(0.00022049 -1.2019e-05 0.100098)
(0.00019871 -1.27569e-05 0.100072)
(0.000176584 -1.34587e-05 0.100055)
(0.000154148 -1.41078e-05 0.100044)
(0.000131401 -1.46877e-05 0.100041)
(0.000108341 -1.51846e-05 0.100042)
(8.498e-05 -1.55853e-05 0.100045)
(6.13498e-05 -1.5879e-05 0.10005)
(3.74959e-05 -1.60556e-05 0.100054)
(1.34777e-05 -1.61064e-05 0.100057)
(-1.06364e-05 -1.60255e-05 0.100059)
(-3.47713e-05 -1.58092e-05 0.100058)
(-5.88467e-05 -1.54569e-05 0.100057)
(-8.27824e-05 -1.4972e-05 0.100055)
(-0.000106504 -1.43615e-05 0.100054)
(-0.000129948 -1.36359e-05 0.100057)
(-0.000153071 -1.28101e-05 0.100064)
(-0.00017585 -1.19043e-05 0.100078)
(-0.000198267 -1.09438e-05 0.1001)
(-0.000220272 -9.9587e-06 0.100129)
(-0.000241677 -8.97935e-06 0.100161)
(-0.000261745 -8.02839e-06 0.100181)
(-0.00027777 -7.10996e-06 0.100118)
(-0.000265644 -5.77484e-06 0.0994378)
(-0.00019092 -3.15226e-06 0.0934869)
(0.000189776 -1.98085e-05 0.0933961)
(0.000263966 -3.12978e-05 0.0993873)
(0.000276512 -3.57907e-05 0.100079)
(0.000260724 -3.75103e-05 0.100144)
(0.000240873 -3.8734e-05 0.100125)
(0.000219699 -3.97435e-05 0.100095)
(0.000197959 -4.06175e-05 0.100069)
(0.000175855 -4.13721e-05 0.100051)
(0.00015344 -4.20074e-05 0.10004)
(0.000130722 -4.25252e-05 0.100037)
(0.000107707 -4.29259e-05 0.100038)
(8.44105e-05 -4.32136e-05 0.100043)
(6.0864e-05 -4.33901e-05 0.100048)
(3.71121e-05 -4.34576e-05 0.100053)
(1.32086e-05 -4.34174e-05 0.100056)
(-1.07844e-05 -4.32712e-05 0.100058)
(-3.47978e-05 -4.30209e-05 0.100057)
(-5.87586e-05 -4.26696e-05 0.100054)
(-8.25922e-05 -4.22181e-05 0.100051)
(-0.000106227 -4.1666e-05 0.10005)
(-0.0001296 -4.10099e-05 0.100052)
(-0.000152667 -4.02451e-05 0.100058)
(-0.000175396 -3.9369e-05 0.100073)
(-0.00019776 -3.83839e-05 0.100095)
(-0.000219699 -3.7296e-05 0.100125)
(-0.000241006 -3.61044e-05 0.100158)
(-0.000260929 -3.47578e-05 0.100179)
(-0.000276753 -3.30349e-05 0.100113)
(-0.000264235 -2.88265e-05 0.0994155)
(-0.00018983 -1.81009e-05 0.0934113)
(0.000187265 -3.43693e-05 0.0932395)
(0.000260603 -5.39791e-05 0.0993395)
(0.000273848 -6.15618e-05 0.10007)
(0.000258405 -6.42051e-05 0.100142)
(0.000238803 -6.591e-05 0.100123)
(0.000217785 -6.72012e-05 0.100092)
(0.000196141 -6.82394e-05 0.100064)
(0.000174111 -6.90715e-05 0.100046)
(0.000151774 -6.97198e-05 0.100036)
(0.00012916 -7.01993e-05 0.100033)
(0.000106289 -7.05303e-05 0.100036)
(8.31807e-05 -7.07286e-05 0.100042)
(5.98679e-05 -7.08102e-05 0.100048)
(3.63862e-05 -7.07861e-05 0.100054)
(1.27791e-05 -7.06669e-05 0.100058)
(-1.09046e-05 -7.04607e-05 0.100059)
(-3.46124e-05 -7.01761e-05 0.100057)
(-5.82853e-05 -6.98181e-05 0.100053)
(-8.18602e-05 -6.9388e-05 0.100049)
(-0.000105275 -6.88786e-05 0.100045)
(-0.000128469 -6.82731e-05 0.100045)
(-0.000151391 -6.75479e-05 0.10005)
(-0.000173999 -6.66763e-05 0.100064)
(-0.000196247 -6.56357e-05 0.100088)
(-0.000218048 -6.44071e-05 0.10012)
(-0.000239161 -6.29533e-05 0.100155)
(-0.000258804 -6.11457e-05 0.100177)
(-0.000274255 -5.85289e-05 0.100106)
(-0.000261016 -5.12921e-05 0.0993704)
(-0.000187402 -3.25349e-05 0.0932567)
(0.000183471 -4.80961e-05 0.0929944)
(0.000255433 -7.56978e-05 0.0992626)
(0.000269698 -8.66172e-05 0.100054)
(0.000254761 -9.0308e-05 0.100136)
(0.000235527 -9.25783e-05 0.100119)
(0.000214743 -9.42161e-05 0.100086)
(0.000193248 -9.5471e-05 0.100058)
(0.000171338 -9.64326e-05 0.100039)
(0.000149138 -9.71402e-05 0.100029)
(0.000126706 -9.76319e-05 0.100029)
(0.00010408 -9.79393e-05 0.100034)
(8.12897e-05 -9.80938e-05 0.100042)
(5.83616e-05 -9.81188e-05 0.100051)
(3.53221e-05 -9.8034e-05 0.100059)
(1.21956e-05 -9.78549e-05 0.100063)
(-1.09911e-05 -9.75965e-05 0.100064)
(-3.42069e-05 -9.72718e-05 0.100061)
(-5.74157e-05 -9.68908e-05 0.100055)
(-8.05754e-05 -9.64556e-05 0.100047)
(-0.000103635 -9.5955e-05 0.10004)
(-0.000126541 -9.53621e-05 0.100037)
(-0.000149235 -9.46343e-05 0.10004)
(-0.000171656 -9.37205e-05 0.100052)
(-0.000193732 -9.25698e-05 0.100076)
(-0.000215331 -9.11321e-05 0.10011)
(-0.000236159 -8.93295e-05 0.100149)
(-0.00025539 -8.69439e-05 0.100172)
(-0.000270296 -8.32717e-05 0.100092)
(-0.000256012 -7.27261e-05 0.0992972)
(-0.000183701 -4.60599e-05 0.0930142)
(0.000178493 -6.05776e-05 0.0926467)
(0.000248487 -9.59992e-05 0.0991481)
(0.000264086 -0.000110658 0.100026)
(0.000249798 -0.000115591 0.100124)
(0.000231043 -0.000118561 0.100109)
(0.000210564 -0.000120638 0.100075)
(0.000189264 -0.000122191 0.100047)
(0.000167522 -0.00012335 0.100029)
(0.000145517 -0.000124188 0.100022)
(0.000123348 -0.000124759 0.100025)
(0.000101077 -0.000125112 0.100034)
(7.8738e-05 -0.000125285 0.100046)
(5.63533e-05 -0.000125309 0.100058)
(3.39288e-05 -0.000125204 0.100068)
(1.14665e-05 -0.000124991 0.100074)
(-1.10341e-05 -0.000124689 0.100075)
(-3.35722e-05 -0.000124315 0.10007)
(-5.61403e-05 -0.000123884 0.100061)
(-7.87217e-05 -0.000123404 0.100049)
(-0.000101289 -0.000122861 0.100037)
(-0.000123795 -0.000122225 0.100028)
(-0.000146177 -0.000121436 0.100027)
(-0.000168353 -0.000120418 0.100036)
(-0.000190208 -0.000119086 0.100058)
(-0.000211554 -0.00011735 0.100094)
(-0.000232019 -0.000115078 0.100135)
(-0.000250714 -0.000111942 0.100158)
(-0.00026492 -0.000106966 0.100066)
(-0.00024927 -9.2652e-05 0.0991869)
(-0.00017884 -5.82226e-05 0.0926701)
(0.000172493 -7.13472e-05 0.0921767)
(0.000239826 -0.000114395 0.0989829)
(0.000257055 -0.000133408 0.0999818)
(0.000243534 -0.000139871 0.100101)
(0.000225349 -0.000143724 0.100089)
(0.000205229 -0.00014636 0.100057)
(0.000184165 -0.000148302 0.10003)
(0.000162633 -0.000149748 0.100016)
(0.000140889 -0.000150799 0.100014)
(0.000119078 -0.000151538 0.100023)
(9.72815e-05 -0.000152021 0.100038)
(7.55414e-05 -0.000152294 0.100056)
(5.38609e-05 -0.000152383 0.100072)
(3.22259e-05 -0.00015231 0.100084)
(1.06078e-05 -0.000152094 0.100091)
(-1.10249e-05 -0.000151756 0.100092)
(-3.27018e-05 -0.000151318 0.100086)
(-5.44498e-05 -0.000150804 0.100074)
(-7.62864e-05 -0.000150224 0.100057)
(-9.82101e-05 -0.000149575 0.100038)
(-0.000120195 -0.000148822 0.100022)
(-0.000142177 -0.000147899 0.100012)
(-0.000164049 -0.000146704 0.100014)
(-0.000185647 -0.000145113 0.100032)
(-0.000206709 -0.000142983 0.100065)
(-0.000226757 -0.000140106 0.100107)
(-0.000244823 -0.000135995 0.10013)
(-0.000258202 -0.000129361 0.100021)
(-0.000240888 -0.000110573 0.0990257)
(-0.000173022 -6.8506e-05 0.0922043)
(0.000165741 -7.98845e-05 0.0915593)
(0.000229562 -0.000130353 0.0987486)
(0.000248668 -0.000154603 0.0999108)
(0.000235983 -0.00016299 0.100059)
(0.00021843 -0.000167939 0.100054)
(0.000198712 -0.000171291 0.100027)
(0.000177902 -0.000173733 0.100007)
(0.000156629 -0.00017556 0.100001)
(0.000135229 -0.000176926 0.100009)
(0.000113891 -0.000177935 0.100026)
(9.27171e-05 -0.000178653 0.100049)
(7.17343e-05 -0.000179119 0.100072)
(5.09278e-05 -0.00017935 0.100093)
(3.02491e-05 -0.000179364 0.100108)
(9.64158e-06 -0.000179177 0.100116)
(-1.09545e-05 -0.000178812 0.100117)
(-3.15999e-05 -0.000178297 0.10011)
(-5.23526e-05 -0.000177657 0.100095)
(-7.3266e-05 -0.000176914 0.100073)
(-9.43799e-05 -0.000176075 0.100047)
(-0.000115697 -0.000175116 0.100021)
(-0.000137166 -0.000173971 0.0999993)
(-0.000158665 -0.000172521 0.0999893)
(-0.000179981 -0.000170596 0.0999963)
(-0.000200757 -0.000167978 0.100022)
(-0.000220369 -0.000164336 0.10006)
(-0.000237754 -0.000159004 0.100079)
(-0.000250247 -0.000150244 0.099946)
(-0.000231037 -0.00012597 0.0987934)
(-0.000166589 -7.63463e-05 0.0915913)
(0.000158747 -8.55665e-05 0.0907664)
(0.00021789 -0.000143255 0.0984148)
(0.000239003 -0.000173988 0.099799)
(0.000227158 -0.000184808 0.0999905)
(0.000210249 -0.000191132 0.1)
(0.00019092 -0.000195357 0.0999852)
(0.000170396 -0.000198409 0.0999784)
(0.000149448 -0.000200722 0.0999869)
(0.000128511 -0.000202517 0.100008)
(0.00010781 -0.000203916 0.100038)
(8.74353e-05 -0.000204986 0.10007)
(6.73937e-05 -0.000205744 0.100099)
(4.76272e-05 -0.000206199 0.100124)
(2.80576e-05 -0.000206354 0.100142)
(8.60087e-06 -0.000206228 0.100152)
(-1.08234e-05 -0.000205846 0.100153)
(-3.02908e-05 -0.000205238 0.100145)
(-4.98844e-05 -0.000204432 0.100128)
(-6.9694e-05 -0.000203457 0.100102)
(-8.98018e-05 -0.000202335 0.100068)
(-0.000110262 -0.000201061 0.10003)
(-0.000131059 -0.000199589 0.0999935)
(-0.00015208 -0.000197794 0.0999657)
(-0.000173071 -0.000195466 0.0999542)
(-0.000193573 -0.000192286 0.0999635)
(-0.000212795 -0.000187749 0.0999881)
(-0.000229529 -0.000180911 0.0999943)
(-0.000241163 -0.000169442 0.0998237)
(-0.000219961 -0.000138286 0.0984577)
(-0.000160131 -8.10994e-05 0.0908028)
(0.000152329 -8.80554e-05 0.0897412)
(0.000204937 -0.000152427 0.0979253)
(0.000228006 -0.000191264 0.0996225)
(0.000216938 -0.000205139 0.0998834)
(0.000200649 -0.000213168 0.0999236)
(0.000181717 -0.000218432 0.0999327)
(0.000161511 -0.000222206 0.0999491)
(0.000141007 -0.000225121 0.0999788)
(0.000120723 -0.000227476 0.100018)
(0.000100884 -0.000229407 0.100061)
(8.15418e-05 -0.000230952 0.100103)
(6.26401e-05 -0.000232106 0.100138)
(4.40767e-05 -0.000232853 0.100166)
(2.57365e-05 -0.000233199 0.100186)
(7.52307e-06 -0.000233161 0.100198)
(-1.06395e-05 -0.000232773 0.1002)
(-2.88282e-05 -0.00023206 0.100192)
(-4.71288e-05 -0.000231055 0.100174)
(-6.56522e-05 -0.000229783 0.100145)
(-8.45303e-05 -0.000228278 0.100105)
(-0.000103883 -0.000226567 0.100055)
(-0.000123766 -0.000224635 0.100001)
(-0.00014412 -0.000222386 0.0999504)
(-0.000164693 -0.000219579 0.0999117)
(-0.000184928 -0.000215792 0.0998919)
(-0.000203825 -0.000210251 0.0998882)
(-0.00021999 -0.000201614 0.0998636)
(-0.000230907 -0.000186779 0.0996281)
(-0.000207827 -0.000146945 0.0979594)
(-0.000154545 -8.24798e-05 0.0897795)
(0.000146406 -8.71133e-05 0.0883758)
(0.000190471 -0.000157222 0.0971793)
(0.000215304 -0.000205642 0.099342)
(0.000205008 -0.000223449 0.0997247)
(0.000189329 -0.000233619 0.0998229)
(0.000170766 -0.000240133 0.0998732)
(0.000150982 -0.000244789 0.0999234)
(0.000131148 -0.000248467 0.0999808)
(0.000111833 -0.000251568 0.100041)
(9.31958e-05 -0.000254191 0.100098)
(7.51789e-05 -0.000256346 0.100148)
(5.7642e-05 -0.000257982 0.100188)
(4.04203e-05 -0.000259078 0.100218)
(2.33862e-05 -0.000259643 0.100239)
(6.45508e-06 -0.000259716 0.100251)
(-1.04242e-05 -0.000259327 0.100254)
(-2.72891e-05 -0.000258513 0.100248)
(-4.42044e-05 -0.000257285 0.100231)
(-6.12769e-05 -0.000255667 0.100202)
(-7.86725e-05 -0.00025369 0.100158)
(-9.6582e-05 -0.000251397 0.100099)
(-0.000115177 -0.00024884 0.100028)
(-0.000134522 -0.000245963 0.099951)
(-0.000154447 -0.000242558 0.0998772)
(-0.000174346 -0.000238071 0.0998151)
(-0.000192999 -0.000231431 0.099762)
(-0.000208727 -0.000220637 0.0996745)
(-0.000219026 -0.000201602 0.0993183)
(-0.000194421 -0.00015152 0.0971947)
(-0.000149783 -8.03361e-05 0.0884097)
(0.000140697 -8.54229e-05 0.086543)
(0.000174557 -0.000153624 0.0959886)
(0.000200314 -0.000215497 0.0988872)
(0.000190753 -0.00023892 0.0994979)
(0.000175449 -0.000251543 0.0996965)
(0.000157215 -0.000259508 0.099806)
(0.000138108 -0.000265283 0.0998995)
(0.000119436 -0.000270025 0.0999893)
(0.000101674 -0.000274126 0.100072)
(8.47628e-05 -0.000277665 0.100142)
(6.84636e-05 -0.000280558 0.100198)
(5.25378e-05 -0.000282746 0.10024)
(3.67857e-05 -0.000284225 0.100271)
(2.10931e-05 -0.000285032 0.100291)
(5.42977e-06 -0.000285222 0.100304)
(-1.01902e-05 -0.00028485 0.100309)
(-2.57408e-05 -0.000283931 0.100305)
(-4.12186e-05 -0.000282479 0.100291)
(-5.66964e-05 -0.00028048 0.100263)
(-7.23188e-05 -0.000277947 0.100219)
(-8.83444e-05 -0.000274932 0.100155)
(-0.000105064 -0.000271505 0.10007)
(-0.000122748 -0.000267729 0.0999676)
(-0.000141468 -0.000263456 0.0998542)
(-0.000160753 -0.000258099 0.0997383)
(-0.000179234 -0.000250274 0.0996137)
(-0.000194816 -0.000237195 0.0994147)
(-0.000204753 -0.000212378 0.0988257)
(-0.000179624 -0.000148234 0.0959742)
(-0.00014558 -7.78084e-05 0.0865662)
(0.000146379 -5.39904e-05 0.0839905)
(0.000154715 -0.000144684 0.093958)
(0.000180713 -0.000223949 0.0981083)
(0.000172271 -0.000250329 0.0991579)
(0.000156535 -0.000265086 0.099502)
(0.000138575 -0.000274778 0.0996886)
(0.000121011 -0.00028214 0.0998387)
(0.000104708 -0.000288365 0.0999682)
(8.96043e-05 -0.000293797 0.100075)
(7.52668e-05 -0.000298414 0.100158)
(6.12663e-05 -0.000302113 0.10022)
(4.72756e-05 -0.000304883 0.100264)
(3.3144e-05 -0.000306754 0.100296)
(1.88514e-05 -0.000307813 0.100317)
(4.45569e-06 -0.000308138 0.10033)
(-9.91949e-06 -0.000307781 0.100336)
(-2.41482e-05 -0.000306774 0.100334)
(-3.81365e-05 -0.00030509 0.100323)
(-5.18367e-05 -0.000302704 0.100298)
(-6.53378e-05 -0.000299587 0.100255)
(-7.8844e-05 -0.000295747 0.100189)
(-9.27416e-05 -0.000291254 0.100093)
(-0.000107547 -0.000286221 0.0999663)
(-0.000123733 -0.000280623 0.0998089)
(-0.000141375 -0.000273994 0.0996268)
(-0.00015965 -0.000264818 0.0994105)
(-0.000175886 -0.000249973 0.0990487)
(-0.000185108 -0.000222351 0.0980076)