/*--------------------------------*- C++ -*----------------------------------*\
| =========                 |                                                 |
| \\      /  F ield         | OpenFOAM: The Open Source CFD Toolbox           |
|  \\    /   O peration     | Version:  2312                                  |
|   \\  /    A nd           | Website:  www.openfoam.com                      |
|    \\/     M anipulation  |                                                 |
\*---------------------------------------------------------------------------*/
FoamFile
{
    version     2.0;
    format      ascii;
    arch        "LSB;label=32;scalar=64";
    class       volScalarField;
    location    "700";
    object      alphat;
}
// * * * * * * * * * * * * * * * * * * * * * * * * * * * * * * * * * * * * * //

dimensions      [1 -1 -1 0 0 0 0];

internalField   nonuniform List<scalar> 
27000
(
0.00394404
0.00669493
0.00935783
0.0117471
0.0140701
0.0162372
0.018203
0.0198623
0.0212887
0.022507
0.023519
0.024324
0.0249192
0.0253146
0.025513
0.0255152
0.0253212
0.0249298
0.0243366
0.0235323
0.0225218
0.0213044
0.0198781
0.0182177
0.0162492
0.0140779
0.0117495
0.00935514
0.00668991
0.00394065
0.00574125
0.00127418
0.00515605
0.0090736
0.0131452
0.017013
0.0206623
0.0240523
0.0271202
0.0298408
0.0321836
0.0341212
0.0356266
0.0366533
0.0371702
0.0371636
0.0366344
0.0355984
0.0340904
0.0321575
0.0298162
0.0270972
0.0240333
0.0206492
0.0170037
0.013139
0.00907126
0.00515266
0.00127119
0.00573673
0.00921767
0.0071052
0.0146303
0.0262715
0.0369265
0.0462773
0.0548145
0.0627784
0.0699868
0.0763119
0.0816816
0.0860616
0.08942
0.0916935
0.0928325
0.0928145
0.0916441
0.0893532
0.0860028
0.0816578
0.076317
0.0700175
0.06283
0.0548807
0.0463329
0.0369666
0.0263302
0.014678
0.00709094
0.00921423
0.0121558
0.0108345
0.0263123
0.0529488
0.07834
0.0964147
0.109981
0.121058
0.130297
0.137897
0.144082
0.148949
0.152576
0.154988
0.156188
0.156179
0.154967
0.152563
0.148972
0.144159
0.138025
0.130455
0.121223
0.110105
0.0964688
0.0783787
0.0530716
0.0264161
0.0108305
0.0121566
0.0149315
0.0144771
0.0371732
0.0766536
0.113516
0.139256
0.156128
0.168036
0.176853
0.183182
0.188124
0.191873
0.194588
0.19636
0.197236
0.197239
0.196374
0.194627
0.191951
0.188245
0.183328
0.176965
0.16815
0.156205
0.139282
0.113572
0.0768191
0.0372889
0.014475
0.0149375
0.0175007
0.0184148
0.0480141
0.0958151
0.138308
0.167679
0.185642
0.19699
0.20447
0.209477
0.212952
0.215399
0.217084
0.218149
0.218667
0.218673
0.218168
0.217126
0.215471
0.213053
0.209592
0.204578
0.197093
0.185756
0.167819
0.138456
0.0960165
0.0481262
0.0184101
0.0175107
0.0198387
0.0225419
0.0588048
0.112051
0.156286
0.185531
0.20313
0.21342
0.219514
0.223188
0.225453
0.226877
0.227773
0.228304
0.228553
0.228557
0.228317
0.227802
0.226928
0.225523
0.223271
0.219599
0.213506
0.203232
0.185674
0.15646
0.112236
0.0588661
0.0225279
0.0198513
0.0219308
0.0267217
0.0692574
0.126002
0.170265
0.197712
0.213646
0.222475
0.227262
0.229828
0.231191
0.23191
0.232285
0.232473
0.232552
0.232554
0.232481
0.232304
0.231944
0.23124
0.229889
0.22733
0.222549
0.213735
0.197824
0.170374
0.126123
0.0692787
0.0267021
0.0219448
0.0237444
0.0308333
0.0790172
0.1379
0.181187
0.206316
0.220211
0.227482
0.231104
0.232805
0.233537
0.233804
0.233867
0.23386
0.233844
0.233846
0.233865
0.23388
0.233826
0.233571
0.232849
0.231155
0.227539
0.220273
0.206375
0.1812
0.137941
0.0789872
0.0308016
0.0237622
0.0252952
0.0347183
0.0878782
0.147875
0.188983
0.212268
0.224367
0.230272
0.23294
0.234001
0.234312
0.234309
0.234205
0.234101
0.234041
0.234041
0.234104
0.234212
0.234323
0.234333
0.234027
0.23297
0.230304
0.224399
0.212295
0.188994
0.147851
0.0878009
0.0346785
0.0253125
0.0265862
0.0382189
0.095623
0.156222
0.195404
0.216608
0.227084
0.231853
0.233783
0.234389
0.234435
0.234285
0.234103
0.233962
0.233887
0.233887
0.233962
0.234106
0.23429
0.234443
0.234398
0.23379
0.231857
0.227083
0.216598
0.19537
0.156141
0.0955126
0.0381751
0.0266021
0.0276178
0.0411987
0.102041
0.162895
0.200396
0.219794
0.228906
0.232773
0.234153
0.23445
0.234335
0.234112
0.233904
0.233757
0.233682
0.233681
0.233755
0.233902
0.234108
0.23433
0.234441
0.234139
0.232751
0.228874
0.219747
0.20032
0.162774
0.10191
0.0411528
0.0276325
0.0283909
0.0435418
0.106979
0.167909
0.204041
0.222035
0.230112
0.233315
0.23431
0.234404
0.234197
0.233943
0.233734
0.233595
0.233525
0.233524
0.23359
0.233727
0.233932
0.234181
0.234381
0.234278
0.233273
0.230056
0.22196
0.203935
0.167761
0.106838
0.0434951
0.0284045
0.0289059
0.0451566
0.110333
0.171297
0.20643
0.223464
0.230849
0.233621
0.234372
0.234346
0.234091
0.233827
0.233624
0.233494
0.233431
0.233429
0.233488
0.233613
0.23381
0.234067
0.234313
0.234328
0.233565
0.230779
0.223374
0.206313
0.171146
0.110189
0.04511
0.0289188
0.0291632
0.0459797
0.112025
0.172992
0.207611
0.224158
0.2312
0.233758
0.234393
0.234311
0.234036
0.233769
0.233572
0.233448
0.233389
0.233386
0.233441
0.233559
0.23375
0.234008
0.234274
0.234344
0.233697
0.231123
0.224063
0.20749
0.172844
0.111882
0.0459336
0.0291758
0.029163
0.0459793
0.112024
0.17299
0.207608
0.224156
0.231198
0.233758
0.234393
0.234311
0.234036
0.233769
0.233571
0.233448
0.233388
0.233386
0.233441
0.23356
0.233751
0.23401
0.234275
0.234345
0.233698
0.231123
0.224063
0.20749
0.172843
0.111883
0.0459334
0.0291756
0.0289053
0.0451555
0.11033
0.171291
0.206424
0.223459
0.230846
0.233619
0.234371
0.234346
0.234091
0.233826
0.233623
0.233493
0.23343
0.233428
0.233488
0.233614
0.233812
0.23407
0.234316
0.234331
0.233566
0.230779
0.223374
0.206312
0.171145
0.110192
0.0451095
0.0289183
0.02839
0.0435401
0.106975
0.1679
0.204032
0.222029
0.230107
0.233313
0.234309
0.234404
0.234197
0.233942
0.233732
0.233591
0.233522
0.233522
0.233589
0.233728
0.233935
0.234185
0.234386
0.234282
0.233275
0.230056
0.22196
0.203934
0.16776
0.106843
0.0434942
0.0284036
0.0276167
0.0411965
0.102037
0.162889
0.20039
0.219789
0.228903
0.232772
0.234153
0.234449
0.234333
0.234108
0.233899
0.23375
0.233675
0.233675
0.233751
0.2339
0.23411
0.234333
0.234446
0.234144
0.232754
0.228875
0.219746
0.200321
0.162779
0.101917
0.0411516
0.027631
0.026585
0.0382165
0.0956232
0.156223
0.195404
0.216608
0.227084
0.231853
0.233783
0.234387
0.234431
0.234277
0.234093
0.233949
0.233874
0.233875
0.233953
0.2341
0.234288
0.234444
0.234401
0.233794
0.23186
0.227085
0.216599
0.195373
0.156149
0.0955226
0.0381739
0.0266
0.0252942
0.0347159
0.0878845
0.147886
0.188993
0.212276
0.224372
0.230275
0.232941
0.233998
0.234305
0.234296
0.234188
0.234081
0.23402
0.234022
0.234088
0.234201
0.234316
0.234331
0.234028
0.232973
0.230307
0.224402
0.2123
0.189003
0.147863
0.0878138
0.0346774
0.0253097
0.0237437
0.0308312
0.079032
0.137927
0.181204
0.206333
0.220222
0.227489
0.231105
0.232801
0.233525
0.233785
0.233842
0.233831
0.233814
0.233817
0.23384
0.233861
0.233813
0.233564
0.232847
0.231156
0.227543
0.22028
0.206388
0.181222
0.137961
0.079003
0.0308003
0.0237589
0.0219303
0.0267199
0.0692809
0.126048
0.170305
0.197742
0.213664
0.222485
0.227264
0.229822
0.231175
0.231885
0.232252
0.232434
0.232512
0.232516
0.232448
0.232277
0.231925
0.231229
0.229884
0.227332
0.222557
0.21375
0.197846
0.170406
0.126154
0.0692985
0.0267
0.0219415
0.0198382
0.0225407
0.0588373
0.112116
0.156344
0.185573
0.203155
0.213433
0.219518
0.223181
0.225435
0.226848
0.227733
0.228257
0.228505
0.22851
0.228276
0.227769
0.226904
0.225509
0.223267
0.219606
0.213524
0.203261
0.185717
0.156507
0.112282
0.0588939
0.0225267
0.0198477
0.0175
0.0184156
0.0480582
0.0958899
0.138372
0.167731
0.185672
0.197008
0.204476
0.209474
0.212936
0.215369
0.217041
0.218098
0.218614
0.218622
0.218123
0.21709
0.215447
0.21304
0.209593
0.204593
0.197124
0.185804
0.167882
0.138526
0.0960795
0.0481629
0.018411
0.0175069
0.0149304
0.0144772
0.0372155
0.0767261
0.113572
0.139295
0.156161
0.168059
0.176861
0.183185
0.188112
0.191844
0.194545
0.196309
0.197183
0.197188
0.196331
0.194594
0.191932
0.188238
0.183338
0.17699
0.168195
0.156274
0.139369
0.113667
0.0768961
0.0373245
0.0144743
0.0149339
0.0121542
0.0108333
0.0263478
0.0530091
0.0783873
0.0964569
0.110024
0.121096
0.130321
0.137904
0.144068
0.148916
0.15253
0.154936
0.156137
0.156134
0.154931
0.152539
0.148961
0.144163
0.138044
0.130493
0.121279
0.110181
0.096559
0.0784736
0.0531489
0.0264457
0.0108282
0.0121534
0.00921574
0.00710162
0.0146437
0.0262964
0.0369505
0.0463027
0.0548355
0.062793
0.0699918
0.0763061
0.081664
0.0860302
0.0893826
0.0916558
0.0927981
0.092786
0.0916231
0.0893413
0.0860025
0.0816665
0.076334
0.0700431
0.0628654
0.0549279
0.0463836
0.0370137
0.0263651
0.0146881
0.00708872
0.00921185
0.00573967
0.00127329
0.00515456
0.00907261
0.0131436
0.0170109
0.0206589
0.024047
0.0271133
0.0298327
0.0321742
0.0341095
0.0356143
0.0366416
0.0371598
0.0371549
0.0366275
0.0355935
0.0340872
0.0321556
0.0298153
0.0270973
0.0240345
0.0206523
0.0170067
0.0131405
0.00907103
0.00515078
0.00127052
0.00573523
0.00394311
0.00669352
0.00935661
0.0117467
0.0140707
0.0162386
0.0182049
0.0198645
0.0212909
0.0225093
0.0235211
0.0243265
0.0249215
0.0253165
0.0255144
0.0255161
0.0253215
0.0249295
0.0243358
0.0235311
0.0225201
0.0213023
0.0198757
0.018215
0.0162464
0.0140753
0.0117472
0.00935318
0.00668849
0.00393986
0.00358473
0.00612531
0.00871964
0.0110693
0.013415
0.0156347
0.017686
0.0194589
0.0210082
0.0223353
0.0234436
0.0243369
0.0250221
0.0254808
0.0257093
0.0257066
0.0254726
0.0250087
0.0243213
0.0234276
0.0223151
0.0209754
0.0194235
0.0176535
0.0156095
0.0134007
0.0110683
0.00872996
0.00614149
0.00359539
0.00515805
0.00166115
0.00754178
0.0111601
0.0147547
0.017758
0.0203031
0.0226792
0.0247749
0.0265897
0.0281241
0.0293596
0.0302789
0.0308918
0.0312019
0.0312086
0.0309108
0.0303061
0.0293866
0.0281403
0.0266033
0.0247931
0.0227001
0.0203553
0.0178208
0.0148178
0.0112176
0.0075791
0.00169565
0.00517561
0.00872528
0.01048
0.0132261
0.0166107
0.0217666
0.0271965
0.0322387
0.0366826
0.0407704
0.0444757
0.0476788
0.0502179
0.0520828
0.0533309
0.0539737
0.054011
0.0534396
0.0522493
0.0503977
0.0477645
0.0445314
0.040805
0.0366869
0.0322049
0.0271678
0.0217498
0.0165853
0.0132193
0.0105976
0.00874071
0.0115842
0.013648
0.0178032
0.0253193
0.035198
0.0458412
0.0554885
0.0640499
0.0717022
0.078669
0.0845851
0.0892852
0.0927371
0.0950168
0.0961854
0.0962703
0.0952621
0.093113
0.0897336
0.0850361
0.0790799
0.0719937
0.0641286
0.0554162
0.0456938
0.0349946
0.0252125
0.0177739
0.0137584
0.0115886
0.0144118
0.0160924
0.0225224
0.0352081
0.0532185
0.0720865
0.088364
0.101579
0.112401
0.121751
0.129291
0.135124
0.139253
0.141914
0.143239
0.143286
0.142044
0.13944
0.135346
0.129572
0.121965
0.112488
0.101418
0.0879959
0.0717494
0.0529112
0.0349857
0.0224294
0.0161838
0.0144016
0.0171105
0.0182629
0.0282634
0.0463508
0.0718257
0.0981032
0.120522
0.13716
0.14917
0.158425
0.165612
0.171032
0.174867
0.177311
0.178511
0.178535
0.177377
0.174955
0.171125
0.165691
0.158433
0.149075
0.136901
0.120044
0.0975577
0.0714489
0.0461551
0.0281522
0.0183316
0.0170908
0.0196239
0.0205476
0.0337363
0.0578714
0.0897662
0.120963
0.14575
0.163407
0.175681
0.184402
0.190741
0.195326
0.198503
0.200502
0.201472
0.201484
0.200532
0.198538
0.19535
0.19074
0.184358
0.175592
0.163257
0.145494
0.120532
0.0894636
0.0577974
0.0336946
0.0205566
0.0196064
0.0219195
0.0230256
0.0389111
0.0688837
0.105527
0.138958
0.164048
0.181571
0.193398
0.201367
0.206808
0.210535
0.213023
0.214551
0.215282
0.215287
0.214563
0.213031
0.210529
0.206779
0.201315
0.193324
0.181469
0.163894
0.138768
0.10547
0.0689954
0.0389013
0.0230281
0.0219028
0.0240228
0.0253491
0.0438687
0.0790965
0.118999
0.15282
0.177331
0.193999
0.204932
0.211998
0.216563
0.219518
0.221397
0.222512
0.223032
0.223033
0.222512
0.22139
0.219498
0.216526
0.211946
0.20487
0.193928
0.177255
0.152789
0.119143
0.0793335
0.043897
0.0253633
0.024001
0.0258713
0.0274408
0.048362
0.0878722
0.130263
0.163623
0.187059
0.202549
0.2124
0.218516
0.22227
0.224559
0.225935
0.226714
0.227067
0.227065
0.226709
0.225922
0.224536
0.222236
0.218475
0.212358
0.202514
0.187043
0.163665
0.130413
0.0881562
0.0484348
0.0274663
0.0258521
0.027439
0.0292645
0.0522773
0.0950511
0.138746
0.171772
0.194136
0.208444
0.217234
0.222467
0.225512
0.227254
0.228231
0.228752
0.228977
0.228976
0.228746
0.22822
0.227237
0.225491
0.222447
0.217222
0.208448
0.194168
0.171857
0.138925
0.095331
0.0523709
0.0292977
0.027423
0.02871
0.0307805
0.0555256
0.100741
0.145163
0.177766
0.199187
0.212469
0.220345
0.224837
0.227308
0.228624
0.229302
0.229634
0.229768
0.229767
0.229631
0.229297
0.228618
0.227305
0.224842
0.220365
0.21251
0.199259
0.177884
0.14535
0.100981
0.0556265
0.0308185
0.0286965
0.0296725
0.0319529
0.0580374
0.105022
0.149834
0.182005
0.202658
0.215132
0.222302
0.226229
0.228274
0.229283
0.229751
0.229953
0.230026
0.230026
0.229954
0.229754
0.22929
0.228289
0.226258
0.222349
0.215203
0.202757
0.18214
0.150009
0.105209
0.0581376
0.0319934
0.0296609
0.0303186
0.032753
0.0597566
0.107939
0.152919
0.184734
0.204838
0.216756
0.223448
0.226999
0.228766
0.229578
0.229914
0.230036
0.230072
0.230073
0.230041
0.229923
0.229594
0.228794
0.227044
0.223513
0.216844
0.204951
0.184873
0.15308
0.108096
0.059853
0.0327936
0.0303081
0.030643
0.0331604
0.0606322
0.10941
0.154457
0.186076
0.205892
0.217527
0.223978
0.227342
0.228971
0.229687
0.229961
0.230045
0.230063
0.230065
0.230051
0.229973
0.229709
0.229006
0.227394
0.224051
0.217622
0.20601
0.186214
0.154609
0.109552
0.0607222
0.0331984
0.0306329
0.0306432
0.0331601
0.0606335
0.109416
0.154464
0.186082
0.205897
0.21753
0.22398
0.227343
0.228972
0.229688
0.229962
0.230046
0.230064
0.230065
0.230051
0.229973
0.229708
0.229005
0.227394
0.224051
0.217623
0.206011
0.186216
0.154613
0.109555
0.0607207
0.033197
0.030633
0.0303192
0.0327515
0.0597595
0.107955
0.152938
0.184751
0.204851
0.216765
0.223454
0.227003
0.228769
0.229581
0.229918
0.23004
0.230075
0.230075
0.230042
0.229923
0.229593
0.228793
0.227043
0.223513
0.216846
0.204955
0.184881
0.15309
0.108107
0.0598491
0.0327896
0.0303082
0.0296734
0.0319503
0.0580415
0.105049
0.149865
0.182032
0.202678
0.215147
0.222312
0.226237
0.228281
0.22929
0.22976
0.229962
0.230035
0.230034
0.229959
0.229757
0.229291
0.228289
0.226258
0.222351
0.215207
0.202765
0.182152
0.150025
0.105226
0.0581319
0.0319873
0.0296612
0.0287109
0.0307768
0.0555297
0.100779
0.145203
0.177797
0.199211
0.212487
0.220359
0.224849
0.22732
0.228638
0.229319
0.229652
0.229787
0.229784
0.229645
0.229308
0.228625
0.22731
0.224847
0.220372
0.21252
0.199272
0.177901
0.145371
0.101003
0.0556195
0.0308107
0.0286972
0.0274399
0.0292596
0.0522793
0.0950975
0.138787
0.171802
0.19416
0.208464
0.217252
0.222486
0.225534
0.22728
0.228262
0.228786
0.229012
0.229008
0.228775
0.228244
0.227255
0.225506
0.222461
0.217236
0.208465
0.194186
0.171876
0.138945
0.0953497
0.0523619
0.0292884
0.0274242
0.0258718
0.0274346
0.0483583
0.0879178
0.130298
0.163648
0.187079
0.20257
0.212423
0.218544
0.222304
0.224602
0.225985
0.226769
0.227122
0.227119
0.226757
0.225964
0.224571
0.222265
0.218502
0.212384
0.202539
0.187066
0.163682
0.130425
0.0881648
0.0484231
0.0274561
0.0258541
0.0240228
0.0253418
0.0438527
0.079131
0.119027
0.152832
0.177344
0.194019
0.20496
0.212036
0.216614
0.219581
0.22147
0.222592
0.223114
0.223112
0.222584
0.221453
0.219552
0.216573
0.211987
0.204908
0.193963
0.177283
0.152801
0.119134
0.079326
0.0438818
0.0253536
0.0240038
0.0219191
0.0230187
0.0388894
0.0688957
0.105518
0.138939
0.164047
0.181589
0.193431
0.201418
0.206876
0.21062
0.213121
0.214658
0.215391
0.215392
0.214659
0.213116
0.210602
0.206842
0.201369
0.193371
0.181509
0.163923
0.138776
0.105454
0.0689748
0.0388793
0.0230209
0.0219054
0.0196234
0.0205444
0.0337091
0.057843
0.0897042
0.120897
0.145727
0.163419
0.175719
0.184465
0.19083
0.195434
0.198626
0.200634
0.201605
0.201612
0.200649
0.198641
0.195439
0.190815
0.184419
0.17564
0.163293
0.145517
0.12053
0.0894419
0.0577678
0.033667
0.0205527
0.01961
0.0171112
0.018284
0.0282209
0.0462961
0.071735
0.0980134
0.12047
0.137165
0.149217
0.158509
0.165727
0.171162
0.175009
0.177461
0.178661
0.178678
0.177504
0.175066
0.17122
0.165773
0.158497
0.149121
0.136931
0.120064
0.0975648
0.071435
0.0461258
0.0281151
0.0183528
0.0170978
0.0144141
0.0161162
0.0224903
0.0351558
0.0531492
0.0720295
0.0883258
0.101597
0.112486
0.121877
0.129445
0.13527
0.139405
0.142071
0.143393
0.143427
0.142167
0.139544
0.135432
0.129648
0.122023
0.112527
0.101443
0.0880128
0.0717499
0.0528969
0.0349701
0.0224032
0.0162026
0.0144093
0.0115886
0.0136742
0.0178005
0.025283
0.0351517
0.0458098
0.0554802
0.064083
0.0718009
0.0788048
0.0847414
0.0894582
0.0929116
0.0951829
0.0963385
0.0964071
0.0953804
0.0932098
0.0898044
0.08509
0.0791171
0.0720021
0.0641261
0.0554033
0.045678
0.0349803
0.0251854
0.0177808
0.0137761
0.0115959
0.00873081
0.0105061
0.0132272
0.0165961
0.021748
0.0271734
0.0322226
0.0366741
0.0407717
0.0444852
0.0477007
0.0502759
0.0521422
0.053385
0.0540213
0.0540522
0.0534745
0.052275
0.050394
0.0477528
0.044516
0.0407849
0.0366601
0.0321648
0.027127
0.0217172
0.016566
0.0132219
0.0106041
0.0087461
0.00516256
0.00166799
0.00755036
0.011174
0.0147717
0.0177755
0.0203173
0.0226802
0.0247743
0.0265887
0.0281244
0.029363
0.0302828
0.0308946
0.0312029
0.0312074
0.0309071
0.0303001
0.0293781
0.0281307
0.0265932
0.024783
0.022693
0.0203675
0.0178364
0.0148316
0.0112266
0.00758386
0.00169742
0.00517819
0.00358725
0.0061292
0.00872243
0.0110701
0.0134134
0.0156308
0.0176804
0.0194523
0.0210018
0.0223309
0.0234397
0.0243321
0.0250177
0.0254771
0.0257062
0.0257041
0.0254707
0.0250074
0.0243206
0.0234275
0.0223157
0.0209778
0.0194269
0.0176581
0.0156147
0.0134059
0.0110729
0.00873362
0.0061443
0.00359685
0.00333702
0.00568231
0.00821653
0.010566
0.0129337
0.015173
0.0172255
0.0189776
0.0204987
0.0218213
0.022934
0.0238279
0.0244954
0.0249424
0.0251682
0.0251721
0.0249539
0.0245142
0.0238521
0.0229617
0.0218539
0.0205428
0.019023
0.0172657
0.0152032
0.0129506
0.010568
0.00820465
0.00566341
0.00332316
0.00483029
0.00238381
0.010593
0.0158036
0.0208667
0.0254226
0.0293618
0.0324349
0.0347697
0.0365153
0.03782
0.0387886
0.0394865
0.039944
0.0401735
0.04018
0.0399631
0.0395173
0.0388294
0.0378689
0.0365645
0.0348116
0.0324667
0.0293419
0.0253655
0.020788
0.015723
0.0105124
0.00233422
0.00480759
0.00823559
0.0126404
0.017246
0.0211649
0.0241626
0.027222
0.0302969
0.033385
0.0362214
0.0385957
0.040534
0.0420965
0.043283
0.044077
0.0444795
0.0444921
0.0441177
0.04336
0.0422269
0.0407645
0.0388835
0.0365283
0.0336564
0.0303992
0.0272947
0.0242412
0.0212383
0.0172634
0.0125081
0.00821415
0.0110331
0.0178515
0.0231722
0.0250416
0.0289252
0.03458
0.0413913
0.0479387
0.0533144
0.0575721
0.0611807
0.0641794
0.0665102
0.068088
0.0688645
0.0688143
0.0679473
0.0662958
0.0639172
0.0609067
0.0573428
0.0532082
0.0480358
0.0414475
0.0346713
0.0291494
0.0251844
0.0231381
0.0175835
0.0110187
0.0138005
0.0218669
0.0263291
0.0296508
0.0378658
0.0505209
0.0627427
0.072613
0.0802816
0.0864783
0.0915361
0.0956754
0.0990617
0.101385
0.102562
0.102505
0.101271
0.0989057
0.0954785
0.0911989
0.0862552
0.0802995
0.0728248
0.0627032
0.0501265
0.037981
0.0298082
0.0263064
0.0217168
0.0138086
0.0164509
0.0254274
0.0286483
0.0360818
0.0512305
0.069746
0.088171
0.102592
0.114021
0.122686
0.12928
0.134313
0.138077
0.140589
0.141823
0.14176
0.140423
0.137847
0.134054
0.129041
0.122612
0.11417
0.102914
0.0882784
0.0698462
0.0511523
0.0361471
0.0286737
0.0253487
0.0164742
0.0189297
0.0282566
0.0314011
0.0438625
0.0640983
0.0884416
0.111729
0.130035
0.143506
0.153255
0.160288
0.165354
0.168908
0.171181
0.172282
0.172259
0.171128
0.168858
0.165341
0.160343
0.153411
0.143727
0.130247
0.112002
0.0890743
0.0644216
0.043971
0.0316202
0.0282681
0.0189546
0.0212108
0.0303803
0.0347203
0.0509583
0.0752044
0.104453
0.13098
0.150962
0.16525
0.175286
0.182267
0.187068
0.190276
0.192248
0.193187
0.193186
0.192256
0.190312
0.187155
0.182416
0.175496
0.165495
0.151209
0.131258
0.104759
0.075325
0.0509145
0.0349613
0.0303996
0.0212363
0.0232413
0.0320593
0.0380599
0.0571327
0.0848552
0.118192
0.145941
0.166286
0.180595
0.190431
0.197075
0.201479
0.204303
0.205978
0.20676
0.206769
0.20601
0.204368
0.201589
0.197233
0.190629
0.180814
0.166505
0.146125
0.118241
0.0847373
0.0569763
0.0382511
0.0320762
0.0232697
0.0250231
0.0334227
0.0412637
0.0630687
0.0946893
0.12981
0.157478
0.177456
0.191297
0.200634
0.206785
0.210734
0.213176
0.214577
0.215215
0.215226
0.214611
0.21324
0.210831
0.206913
0.200783
0.19145
0.177585
0.15753
0.129662
0.0943937
0.0628123
0.0412896
0.0334348
0.0250497
0.0265409
0.0345314
0.0440853
0.0683657
0.103282
0.138871
0.166162
0.185498
0.198675
0.207397
0.213007
0.216505
0.218595
0.219754
0.220269
0.220278
0.219781
0.218643
0.216572
0.21309
0.207484
0.19875
0.185538
0.16613
0.138713
0.102952
0.0681165
0.0440841
0.0345454
0.0265649
0.0277778
0.0354251
0.0465088
0.0728046
0.110216
0.145796
0.172534
0.191174
0.203674
0.211793
0.216898
0.219992
0.221783
0.222742
0.223156
0.223162
0.222758
0.22181
0.220027
0.216934
0.21182
0.203677
0.191136
0.172433
0.145601
0.109917
0.0726161
0.0465037
0.0354391
0.0277995
0.0287191
0.036109
0.0484304
0.0762159
0.115408
0.150829
0.17702
0.195037
0.206949
0.214559
0.219248
0.222018
0.223574
0.224381
0.22472
0.224722
0.224387
0.223583
0.222024
0.219244
0.214536
0.206896
0.194941
0.17687
0.150617
0.115155
0.0760961
0.0484252
0.0361211
0.028739
0.0293531
0.0365774
0.049761
0.078475
0.118841
0.154114
0.179889
0.197444
0.208929
0.216174
0.220567
0.223114
0.22451
0.225215
0.225503
0.225503
0.225213
0.224505
0.223099
0.220537
0.216118
0.208841
0.197315
0.179714
0.153901
0.118623
0.0783908
0.0497548
0.0365828
0.0293715
0.0296721
0.0368314
0.0504428
0.0796107
0.120545
0.155735
0.181289
0.198601
0.209862
0.216917
0.221158
0.22359
0.224906
0.22556
0.225823
0.225822
0.225555
0.224895
0.223567
0.221116
0.216848
0.209759
0.198459
0.181107
0.155526
0.120347
0.0795416
0.0504341
0.0368146
0.0296893
0.0296714
0.0368317
0.0504423
0.0796063
0.120539
0.15573
0.181285
0.1986
0.209862
0.216918
0.22116
0.223592
0.224907
0.22556
0.225824
0.225823
0.225557
0.224898
0.223571
0.221121
0.216853
0.209764
0.198463
0.181109
0.155525
0.120342
0.0795345
0.0504334
0.0368117
0.0296887
0.0293509
0.0365693
0.0497587
0.0784609
0.118821
0.154099
0.179879
0.19744
0.208929
0.216176
0.22057
0.223116
0.224512
0.225216
0.225504
0.225505
0.225218
0.224512
0.22311
0.22055
0.216133
0.208855
0.197326
0.179721
0.153899
0.118609
0.0783708
0.0497525
0.0365741
0.0293695
0.0287155
0.036095
0.0484264
0.07619
0.115374
0.150806
0.177008
0.195033
0.206951
0.214563
0.219251
0.22202
0.223574
0.224379
0.224717
0.224722
0.224391
0.223591
0.222038
0.219262
0.214558
0.206918
0.19496
0.176883
0.150618
0.115135
0.0760665
0.0484215
0.0361059
0.0287356
0.0277733
0.0354065
0.0465033
0.0727636
0.110168
0.145769
0.172524
0.191173
0.203677
0.211798
0.2169
0.21999
0.221775
0.22273
0.223144
0.223152
0.222754
0.221814
0.220039
0.216953
0.211844
0.203703
0.191162
0.172453
0.145608
0.109898
0.0725802
0.0464987
0.0354182
0.0277946
0.0265357
0.0345092
0.0440806
0.0683134
0.103225
0.138848
0.166161
0.185504
0.198682
0.207401
0.213004
0.216492
0.218573
0.219726
0.220239
0.220251
0.219763
0.218635
0.216576
0.213105
0.207507
0.198778
0.185568
0.166159
0.138729
0.102941
0.0680847
0.0440789
0.0345196
0.0265583
0.0250179
0.0333988
0.0412714
0.0630203
0.0946349
0.12979
0.15749
0.177472
0.191309
0.200636
0.206773
0.210705
0.213133
0.214523
0.215159
0.215174
0.21457
0.213214
0.210821
0.206918
0.2008
0.191476
0.177619
0.157569
0.129698
0.0943958
0.0627939
0.041286
0.0334043
0.0250413
0.0232363
0.0320387
0.0381408
0.0571109
0.0848316
0.118198
0.145969
0.166314
0.180611
0.190429
0.197049
0.201428
0.204231
0.205892
0.206669
0.206685
0.20594
0.204319
0.201561
0.197225
0.190637
0.180836
0.166539
0.146168
0.118291
0.084768
0.0569798
0.0382565
0.0320439
0.0232596
0.0212061
0.0303619
0.0348052
0.0509486
0.0752184
0.104504
0.131028
0.150996
0.165264
0.175271
0.182217
0.186985
0.190164
0.192117
0.193052
0.193061
0.192152
0.190236
0.187106
0.182393
0.175496
0.165514
0.151243
0.131304
0.10482
0.075366
0.0509347
0.0350081
0.0303688
0.0212252
0.0189253
0.0282412
0.0314681
0.0438824
0.0641623
0.0885629
0.111803
0.130064
0.143503
0.153208
0.160191
0.165219
0.168741
0.170994
0.172092
0.172086
0.170986
0.16875
0.165267
0.160301
0.1534
0.143744
0.130289
0.112065
0.0891529
0.0644699
0.0439865
0.0316596
0.0282429
0.0189425
0.0164456
0.0253891
0.0286458
0.0361195
0.0512792
0.0697925
0.0882111
0.102607
0.113972
0.122561
0.129093
0.134102
0.137847
0.140343
0.141576
0.14154
0.140247
0.137712
0.133953
0.12897
0.122576
0.11417
0.102956
0.0883609
0.0699254
0.0512212
0.0361858
0.0286644
0.0253065
0.0164594
0.0137932
0.0218167
0.0263052
0.0296537
0.0378773
0.050487
0.0627798
0.0726321
0.0802269
0.0863566
0.0913796
0.095554
0.0989329
0.101239
0.102392
0.102368
0.101175
0.0988398
0.0954334
0.0911594
0.0862365
0.0803042
0.0728625
0.0628003
0.0502077
0.0379824
0.0297704
0.026272
0.0216736
0.0137942
0.0110229
0.0177757
0.0231347
0.0250455
0.0289465
0.0346012
0.0414458
0.0479568
0.0532625
0.0574894
0.0610847
0.0640784
0.0664082
0.0679871
0.0687686
0.068733
0.0678847
0.0662505
0.0638883
0.0608884
0.057333
0.0532113
0.0480545
0.0415173
0.034683
0.0291189
0.0251477
0.0230883
0.0175256
0.0110065
0.00822619
0.012595
0.0172316
0.0211656
0.0241622
0.0272198
0.0303021
0.0334574
0.0363071
0.0386809
0.0406093
0.0421482
0.0433271
0.044117
0.0445186
0.0445328
0.0441612
0.0434062
0.0422837
0.0408199
0.0389337
0.0365729
0.0336926
0.0303911
0.0272767
0.02422
0.0212175
0.0172416
0.0125005
0.008206
0.00482289
0.00236714
0.0105762
0.0157776
0.0208357
0.0253918
0.0293381
0.0324265
0.0347614
0.0365062
0.0378094
0.0387757
0.0394712
0.0399263
0.0401537
0.0401586
0.0399404
0.0394933
0.0388043
0.0378432
0.0365392
0.034788
0.0324439
0.0293038
0.0253258
0.0207541
0.0156978
0.0104894
0.00233156
0.00480315
0.00333302
0.00567671
0.00821194
0.0105633
0.0129335
0.0151751
0.0172296
0.0189828
0.0205037
0.0218243
0.0229363
0.0238301
0.0244966
0.0249426
0.0251674
0.0251702
0.024951
0.0245102
0.0238469
0.0229554
0.0218464
0.0205335
0.0190126
0.0172544
0.0151917
0.0129399
0.010559
0.00819746
0.00565869
0.00332067
0.00337579
0.00571633
0.00817401
0.0104624
0.0127287
0.0148644
0.0168275
0.018514
0.019988
0.0212665
0.0223421
0.0232084
0.0238602
0.0242945
0.0245096
0.0245046
0.0242796
0.023836
0.0231761
0.0223038
0.0212251
0.0199477
0.018479
0.0168014
0.0148501
0.0127289
0.0104771
0.00819593
0.00574662
0.00339634
0.00492589
0.00331276
0.0120173
0.0185128
0.0247111
0.0301981
0.0348924
0.03871
0.0417765
0.0442207
0.0461334
0.0476028
0.048672
0.049366
0.0497023
0.049691
0.0493342
0.0486275
0.0475628
0.0461208
0.0442492
0.04186
0.0388679
0.0350702
0.030339
0.0248163
0.0185471
0.0120177
0.00340558
0.00495696
0.00825848
0.0145117
0.0193813
0.0246784
0.0296682
0.034566
0.039036
0.0427192
0.0454829
0.0475195
0.0490039
0.050109
0.0509157
0.051443
0.0517065
0.0517142
0.0514675
0.0509672
0.0502289
0.0492285
0.0478272
0.0458399
0.0430479
0.039302
0.0346713
0.0295753
0.0244356
0.0192327
0.0145382
0.00828118
0.0110033
0.0209626
0.0275243
0.0302608
0.0331833
0.0367436
0.0400759
0.0433002
0.0465621
0.0497044
0.052598
0.0553523
0.0578046
0.0595583
0.0604308
0.0603473
0.059304
0.0574164
0.0551414
0.0527109
0.0499841
0.0468781
0.0435595
0.0403317
0.0370699
0.0330628
0.0299471
0.0274825
0.0211973
0.0110238
0.0136493
0.0262338
0.0330434
0.0352435
0.0384427
0.0442339
0.0514037
0.0583973
0.0646369
0.070084
0.0754548
0.0803891
0.0841802
0.0867158
0.0879437
0.0879465
0.0865917
0.0837456
0.0795256
0.0745385
0.0692699
0.0641157
0.0583911
0.0516229
0.0445009
0.038316
0.0350862
0.0332025
0.026427
0.0136501
0.0161833
0.0309382
0.0371119
0.0387466
0.0443575
0.0553681
0.0668652
0.0782713
0.0881001
0.0964994
0.103895
0.1101
0.114775
0.117871
0.11945
0.119568
0.118156
0.115077
0.110283
0.103936
0.0963081
0.0877809
0.0778608
0.0664314
0.0549541
0.0444764
0.0388617
0.0374028
0.0310996
0.0161646
0.0185603
0.0348929
0.0399521
0.0415613
0.0518269
0.0674057
0.083559
0.0998184
0.113892
0.125565
0.13481
0.141666
0.146607
0.149829
0.15144
0.151484
0.149926
0.14667
0.141616
0.134619
0.125117
0.113237
0.0993299
0.0830521
0.066928
0.0519357
0.0417517
0.0401443
0.0350478
0.0185306
0.0207553
0.0381691
0.0418051
0.0448819
0.0601757
0.0800541
0.100813
0.121099
0.137898
0.150476
0.159736
0.166486
0.171231
0.174268
0.175759
0.175769
0.174282
0.171202
0.166368
0.159498
0.150061
0.137191
0.120391
0.100384
0.0797778
0.0599417
0.0450878
0.0420102
0.0382694
0.0207214
0.022743
0.0409916
0.043237
0.0488465
0.0691076
0.0920499
0.117092
0.139436
0.156477
0.168934
0.177912
0.184303
0.1887
0.191464
0.192799
0.192794
0.191441
0.188637
0.184179
0.17771
0.168635
0.156058
0.138882
0.116679
0.0918865
0.068684
0.0489673
0.0434042
0.0410242
0.0227074
0.0244965
0.0433598
0.0445098
0.0531299
0.0770001
0.103023
0.130847
0.15325
0.170007
0.182074
0.190624
0.196587
0.200605
0.203087
0.204269
0.204259
0.203054
0.200542
0.196484
0.190479
0.18189
0.16979
0.153031
0.13073
0.103144
0.0768153
0.0531167
0.0446521
0.0433406
0.0244609
0.0259929
0.0452993
0.045758
0.0579331
0.0836889
0.112931
0.14146
0.163573
0.179777
0.191298
0.199346
0.204861
0.208507
0.21072
0.211761
0.211752
0.210691
0.208457
0.204791
0.199262
0.191211
0.179704
0.163543
0.14153
0.113124
0.0838474
0.0576971
0.0458121
0.0452455
0.0259578
0.0272125
0.0468168
0.0468332
0.0622427
0.0891082
0.120735
0.149412
0.171105
0.186712
0.197667
0.205213
0.2103
0.213603
0.215575
0.216493
0.216487
0.215556
0.213574
0.210266
0.205186
0.19766
0.186746
0.171205
0.14961
0.121035
0.0893225
0.0621014
0.0468496
0.0467465
0.0271778
0.0281414
0.0479381
0.0476921
0.0653154
0.0930378
0.126334
0.155025
0.176327
0.191432
0.201901
0.209016
0.213739
0.216756
0.218531
0.219349
0.219346
0.218523
0.216748
0.213739
0.209035
0.201955
0.19154
0.176509
0.1553
0.126687
0.0932895
0.0653433
0.0477071
0.0478602
0.0281059
0.0287679
0.0486824
0.0483778
0.0672743
0.0955457
0.129896