/*--------------------------------*- C++ -*----------------------------------*\
| =========                 |                                                 |
| \\      /  F ield         | OpenFOAM: The Open Source CFD Toolbox           |
|  \\    /   O peration     | Version:  2312                                  |
|   \\  /    A nd           | Website:  www.openfoam.com                      |
|    \\/     M anipulation  |                                                 |
\*---------------------------------------------------------------------------*/
FoamFile
{
    version     2.0;
    format      ascii;
    arch        "LSB;label=32;scalar=64";
    class       volScalarField;
    location    "700";
    object      epsilon;
}
// * * * * * * * * * * * * * * * * * * * * * * * * * * * * * * * * * * * * * //

dimensions      [0 2 -3 0 0 0 0];

internalField   nonuniform List<scalar> 
27000
(
0.0015203
0.000223865
0.000110728
7.01937e-05
5.22021e-05
4.19339e-05
3.52217e-05
3.05668e-05
2.72168e-05
2.47636e-05
2.2959e-05
2.16419e-05
2.07075e-05
2.01146e-05
1.98292e-05
1.98343e-05
2.01299e-05
2.07334e-05
2.16766e-05
2.29974e-05
2.48113e-05
2.72758e-05
3.0638e-05
3.53048e-05
4.20248e-05
5.22876e-05
7.02379e-05
0.000110636
0.000223376
0.00151647
0.000150351
3.23485e-05
1.38543e-05
9.30151e-06
7.19327e-06
5.97017e-06
5.13772e-06
4.53001e-06
4.07535e-06
3.73564e-06
3.48383e-06
3.29957e-06
3.16878e-06
3.08512e-06
3.04462e-06
3.04518e-06
3.08673e-06
3.17117e-06
3.30206e-06
3.48561e-06
3.73697e-06
4.07601e-06
4.52972e-06
5.13657e-06
5.96814e-06
7.18845e-06
9.28742e-06
1.38073e-05
3.2222e-05
0.000149997
0.000100008
1.5233e-05
5.11057e-06
2.56838e-06
1.91965e-06
1.62879e-06
1.44578e-06
1.31521e-06
1.2176e-06
1.14399e-06
1.0889e-06
1.04827e-06
1.01935e-06
1.00067e-06
9.91444e-07
9.91275e-07
1.00013e-06
1.01831e-06
1.04652e-06
1.08618e-06
1.14042e-06
1.21339e-06
1.31094e-06
1.4426e-06
1.62802e-06
1.9219e-06
2.57031e-06
5.09043e-06
1.5153e-05
9.99021e-05
6.66877e-05
1.02514e-05
2.83478e-06
1.39725e-06
1.00207e-06
8.57711e-07
7.81875e-07
7.31781e-07
6.9564e-07
6.68923e-07
6.48923e-07
6.34221e-07
6.23798e-07
6.17052e-07
6.13652e-07
6.13447e-07
6.16425e-07
6.22722e-07
6.3267e-07
6.4694e-07
6.6671e-07
6.93596e-07
7.30476e-07
7.82077e-07
8.6011e-07
1.00661e-06
1.40134e-06
2.82845e-06
1.02177e-05
6.67025e-05
4.93132e-05
7.25113e-06
2.04386e-06
1.04337e-06
7.53985e-07
6.4475e-07
5.93953e-07
5.64313e-07
5.44767e-07
5.32036e-07
5.22495e-07
5.15533e-07
5.10634e-07
5.07471e-07
5.05848e-07
5.05678e-07
5.06965e-07
5.09815e-07
5.14462e-07
5.21315e-07
5.30991e-07
5.4429e-07
5.64562e-07
5.95255e-07
6.47244e-07
7.57187e-07
1.04529e-06
2.03976e-06
7.23824e-06
4.93716e-05
3.87352e-05
5.61211e-06
1.62655e-06
8.77124e-07
6.52059e-07
5.63257e-07
5.23844e-07
5.02891e-07
4.90258e-07
4.82212e-07
4.76741e-07
4.72924e-07
4.70306e-07
4.68635e-07
4.67768e-07
4.67647e-07
4.68283e-07
4.69767e-07
4.72282e-07
4.76135e-07
4.81836e-07
4.90325e-07
5.03514e-07
5.24998e-07
5.6475e-07
6.53544e-07
8.77152e-07
1.62281e-06
5.60736e-06
3.87999e-05
3.1729e-05
4.59697e-06
1.38386e-06
7.79773e-07
5.97097e-07
5.25103e-07
4.92616e-07
4.76452e-07
4.67535e-07
4.622e-07
4.58796e-07
4.5654e-07
4.55041e-07
4.54099e-07
4.53609e-07
4.53531e-07
4.5388e-07
4.54723e-07
4.562e-07
4.58543e-07
4.62158e-07
4.67811e-07
4.77069e-07
4.9347e-07
5.25914e-07
5.97447e-07
7.78727e-07
1.38031e-06
4.59577e-06
3.17877e-05
2.68477e-05
3.91351e-06
1.22583e-06
7.16955e-07
5.62101e-07
5.02869e-07
4.76479e-07
4.63881e-07
4.57426e-07
4.5384e-07
4.51687e-07
4.50316e-07
4.49426e-07
4.48872e-07
4.48584e-07
4.48538e-07
4.48747e-07
4.49257e-07
4.50159e-07
4.51614e-07
4.53921e-07
4.57696e-07
4.64311e-07
4.76941e-07
5.03139e-07
5.61909e-07
7.15606e-07
1.22304e-06
3.91435e-06
2.68978e-05
2.32703e-05
3.42239e-06
1.11297e-06
6.73219e-07
5.38608e-07
4.88752e-07
4.67166e-07
4.57338e-07
4.52652e-07
4.50256e-07
4.48909e-07
4.48081e-07
4.47546e-07
4.4721e-07
4.47035e-07
4.4701e-07
4.47144e-07
4.47463e-07
4.48018e-07
4.48906e-07
4.50342e-07
4.52827e-07
4.5755e-07
4.67309e-07
4.88686e-07
5.38248e-07
6.72037e-07
1.11131e-06
3.4257e-06
2.33213e-05
2.06552e-05
3.06251e-06
1.02915e-06
6.41534e-07
5.24183e-07
4.79888e-07
4.61569e-07
4.53709e-07
4.50256e-07
4.48656e-07
4.4783e-07
4.4734e-07
4.4702e-07
4.46815e-07
4.46706e-07
4.46693e-07
4.46781e-07
4.46981e-07
4.47314e-07
4.47836e-07
4.48701e-07
4.50321e-07
4.53745e-07
4.61497e-07
4.79614e-07
5.2362e-07
6.40654e-07
1.02846e-06
3.06684e-06
2.06964e-05
1.87449e-05
2.79879e-06
9.66504e-07
6.17608e-07
5.12883e-07
4.73788e-07
4.5803e-07
4.51594e-07
4.4898e-07
4.47896e-07
4.47396e-07
4.47115e-07
4.46928e-07
4.46802e-07
4.46734e-07
4.46727e-07
4.46784e-07
4.46906e-07
4.47097e-07
4.47388e-07
4.47893e-07
4.48962e-07
4.51521e-07
4.57852e-07
4.7346e-07
5.12397e-07
6.17079e-07
9.66496e-07
2.80333e-06
1.87778e-05
1.73685e-05
2.60819e-06
9.20518e-07
5.99919e-07
5.0451e-07
4.69475e-07
4.55711e-07
4.50316e-07
4.4827e-07
4.4751e-07
4.47206e-07
4.4705e-07
4.46944e-07
4.46869e-07
4.46826e-07
4.46822e-07
4.46856e-07
4.46926e-07
4.47029e-07
4.4718e-07
4.47471e-07
4.482e-07
4.50192e-07
4.55508e-07
4.69184e-07
5.04167e-07
5.99681e-07
9.20935e-07
2.61266e-06
1.73955e-05
1.64152e-05
2.47581e-06
8.8817e-07
5.87335e-07
4.98613e-07
4.66526e-07
4.54208e-07
4.49542e-07
4.47868e-07
4.47306e-07
4.47116e-07
4.47032e-07
4.46974e-07
4.46929e-07
4.46902e-07
4.46898e-07
4.46918e-07
4.46955e-07
4.47004e-07
4.47076e-07
4.47246e-07
4.47776e-07
4.49405e-07
4.54019e-07
4.66297e-07
4.98402e-07
5.87317e-07
8.88835e-07
2.48012e-06
1.64382e-05
1.58142e-05
2.39217e-06
8.67522e-07
5.79101e-07
4.94829e-07
4.64681e-07
4.53304e-07
4.49101e-07
4.47652e-07
4.47202e-07
4.47073e-07
4.47027e-07
4.46995e-07
4.46968e-07
4.4695e-07
4.46946e-07
4.46956e-07
4.46974e-07
4.46995e-07
4.47025e-07
4.47132e-07
4.47553e-07
4.48966e-07
4.53137e-07
4.64504e-07
4.94701e-07
5.79177e-07
8.68303e-07
2.39632e-06
1.58349e-05
1.55235e-05
2.35165e-06
8.57469e-07
5.75066e-07
4.92981e-07
4.63793e-07
4.5288e-07
4.48902e-07
4.4756e-07
4.4716e-07
4.47057e-07
4.47027e-07
4.47006e-07
4.46987e-07
4.46973e-07
4.4697e-07
4.46976e-07
4.46985e-07
4.46993e-07
4.47007e-07
4.47088e-07
4.4746e-07
4.48774e-07
4.52729e-07
4.63644e-07
4.92891e-07
5.75177e-07
8.5828e-07
2.35568e-06
1.5543e-05
1.55231e-05
2.35162e-06
8.57462e-07
5.75064e-07
4.92981e-07
4.63794e-07
4.52882e-07
4.48905e-07
4.47564e-07
4.47164e-07
4.4706e-07
4.4703e-07
4.47009e-07
4.46989e-07
4.46976e-07
4.46972e-07
4.46979e-07
4.4699e-07
4.46999e-07
4.47013e-07
4.47095e-07
4.47468e-07
4.48781e-07
4.52735e-07
4.63647e-07
4.92889e-07
5.75169e-07
8.58247e-07
2.3556e-06
1.55427e-05
1.58133e-05
2.39206e-06
8.67496e-07
5.79092e-07
4.94825e-07
4.64683e-07
4.53311e-07
4.49111e-07
4.47664e-07
4.47214e-07
4.47083e-07
4.47035e-07
4.47002e-07
4.46974e-07
4.46956e-07
4.46953e-07
4.46965e-07
4.46987e-07
4.4701e-07
4.47044e-07
4.47154e-07
4.47576e-07
4.48989e-07
4.53156e-07
4.64514e-07
4.94697e-07
5.79152e-07
8.68204e-07
2.39605e-06
1.5834e-05
1.64136e-05
2.47561e-06
8.88109e-07
5.87312e-07
4.98602e-07
4.66527e-07
4.5422e-07
4.4956e-07
4.47889e-07
4.47326e-07
4.47133e-07
4.47045e-07
4.46984e-07
4.46937e-07
4.46911e-07
4.46909e-07
4.46932e-07
4.46974e-07
4.4703e-07
4.47108e-07
4.47283e-07
4.47816e-07
4.49445e-07
4.54054e-07
4.66319e-07
4.98401e-07
5.87277e-07
8.88673e-07
2.47965e-06
1.64365e-05
1.73664e-05
2.60787e-06
9.20394e-07
5.9986e-07
5.04483e-07
4.69474e-07
4.55728e-07
4.50344e-07
4.48301e-07
4.47538e-07
4.47229e-07
4.47067e-07
4.46955e-07
4.46877e-07
4.46835e-07
4.46833e-07
4.46874e-07
4.46952e-07
4.47064e-07
4.47225e-07
4.47524e-07
4.4826e-07
4.50254e-07
4.55564e-07
4.69223e-07
5.04173e-07
5.99622e-07
9.20707e-07
2.61196e-06
1.73926e-05
1.87425e-05
2.79829e-06
9.66273e-07
6.17495e-07
5.12835e-07
4.73785e-07
4.58057e-07
4.51636e-07
4.49025e-07
4.47934e-07
4.47423e-07
4.47131e-07
4.46937e-07
4.46807e-07
4.46739e-07
4.46737e-07
4.46802e-07
4.46935e-07
4.4714e-07
4.47445e-07
4.47962e-07
4.4904e-07
4.51605e-07
4.57932e-07
4.73522e-07
5.12419e-07
6.17016e-07
9.662e-07
2.80231e-06
1.87734e-05
2.06528e-05
3.06173e-06
1.02874e-06
6.41347e-07
5.24117e-07
4.79895e-07
4.61616e-07
4.53772e-07
4.50316e-07
4.48702e-07
4.47858e-07
4.47352e-07
4.47022e-07
4.46811e-07
4.46703e-07
4.46697e-07
4.46797e-07
4.47011e-07
4.47362e-07
4.47902e-07
4.48783e-07
4.50417e-07
4.53849e-07
4.61598e-07
4.79698e-07
5.2366e-07
6.40594e-07
1.0281e-06
3.06541e-06
2.06898e-05
2.32681e-05
3.42116e-06
1.11232e-06
6.72948e-07
5.38555e-07
4.88787e-07
4.67247e-07
4.57429e-07
4.52728e-07
4.50306e-07
4.48931e-07
4.48081e-07
4.47532e-07
4.47191e-07
4.47019e-07
4.47004e-07
4.47153e-07
4.4749e-07
4.48066e-07
4.48976e-07
4.50431e-07
4.52931e-07
4.57664e-07
4.67423e-07
4.88781e-07
5.38283e-07
6.71969e-07
1.11086e-06
3.42377e-06
2.33117e-05
2.68457e-05
3.91159e-06
1.22485e-06
7.16601e-07
5.62053e-07
5.02948e-07
4.76604e-07
4.64e-07
4.57509e-07
4.5388e-07
4.51688e-07
4.50291e-07
4.49387e-07
4.4883e-07
4.48548e-07
4.48516e-07
4.48744e-07
4.49276e-07
4.50203e-07
4.5168e-07
4.54007e-07
4.57798e-07
4.6442e-07
4.77046e-07
5.03223e-07
5.61932e-07
7.15494e-07
1.22243e-06
3.91183e-06
2.68861e-05
3.17266e-05
4.59401e-06
1.3825e-06
7.79381e-07
5.97103e-07
5.2525e-07
4.92789e-07
4.76586e-07
4.67604e-07
4.62205e-07
4.58754e-07
4.5647e-07
4.54962e-07
4.54023e-07
4.53547e-07
4.53488e-07
4.53859e-07
4.54728e-07
4.5623e-07
4.58597e-07
4.6223e-07
4.67892e-07
4.77148e-07
4.93532e-07
5.2593e-07
5.974e-07
7.78479e-07
1.37933e-06
4.592e-06
3.1771e-05
3.87307e-05
5.60744e-06
1.62479e-06
8.76766e-07
6.52179e-07
5.63463e-07
5.24037e-07
5.02996e-07
4.90267e-07
4.82139e-07
4.7662e-07
4.72785e-07
4.70171e-07
4.68515e-07
4.67671e-07
4.67575e-07
4.68238e-07
4.69748e-07
4.72288e-07
4.76164e-07
4.81877e-07
4.90366e-07
5.03535e-07
5.24975e-07
5.64652e-07
6.53316e-07
8.76604e-07
1.62113e-06
5.60149e-06
3.87758e-05
4.93028e-05
7.24347e-06
2.04138e-06
1.04304e-06
7.54236e-07
6.45026e-07
5.94086e-07
5.643e-07
5.44645e-07
5.31814e-07
5.22248e-07
5.15298e-07
5.10429e-07
5.07301e-07
5.05711e-07
5.0557e-07
5.06883e-07
5.09757e-07
5.14425e-07
5.21294e-07
5.30973e-07
5.44261e-07
5.64484e-07
5.95075e-07
6.46907e-07
7.56574e-07
1.0441e-06
2.0368e-06
7.2292e-06
4.93365e-05
6.66621e-05
1.02372e-05
2.83053e-06
1.39665e-06
1.00224e-06
8.57754e-07
7.81645e-07
7.31361e-07
6.95145e-07
6.68434e-07
6.48495e-07
6.33877e-07
6.2353e-07
6.16841e-07
6.13481e-07
6.13302e-07
6.16295e-07
6.22598e-07
6.32545e-07
6.4681e-07
6.66555e-07
6.93379e-07
7.30149e-07
7.81561e-07
8.59287e-07
1.00524e-06
1.39873e-06
2.82272e-06
1.02034e-05
6.66507e-05
9.99475e-05
1.52081e-05
5.10125e-06
2.56619e-06
1.91862e-06
1.6277e-06
1.4445e-06
1.31396e-06
1.21652e-06
1.14313e-06
1.08826e-06
1.04786e-06
1.01907e-06
1.00046e-06
9.91256e-07
9.91079e-07
9.99898e-07
1.01803e-06
1.04616e-06
1.08573e-06
1.13985e-06
1.21264e-06
1.30991e-06
1.44111e-06
1.62584e-06
1.91861e-06
2.56485e-06
5.07899e-06
1.51338e-05
9.98273e-05
0.000150238
3.23135e-05
1.38378e-05
9.29349e-06
7.18878e-06
5.96722e-06
5.13572e-06
4.52874e-06
4.07465e-06
3.73536e-06
3.48384e-06
3.2999e-06
3.16919e-06
3.08545e-06
3.04478e-06
3.04511e-06
3.08638e-06
3.17049e-06
3.301e-06
3.48412e-06
3.73495e-06
4.07327e-06
4.52601e-06
5.13141e-06
5.96111e-06
7.17888e-06
9.27392e-06
1.37892e-05
3.21939e-05
0.000149887
0.00151922
0.000223716
0.000110683
7.01857e-05
5.2207e-05
4.19428e-05
3.52312e-05
3.05756e-05
2.72244e-05
2.47699e-05
2.29643e-05
2.16476e-05
2.07121e-05
2.0118e-05
1.98315e-05
1.98353e-05
2.01298e-05
2.07319e-05
2.16737e-05
2.2993e-05
2.48051e-05
2.72672e-05
3.06262e-05
3.52886e-05
4.20029e-05
5.22575e-05
7.01949e-05
0.000110565
0.000223231
0.00151558
0.00114042
0.000171323
8.95439e-05
5.87326e-05
4.52653e-05
3.74655e-05
3.2336e-05
2.87716e-05
2.61817e-05
2.42203e-05
2.27566e-05
2.16977e-05
2.09855e-05
2.05331e-05
2.031e-05
2.03038e-05
2.0514e-05
2.09525e-05
2.16537e-05
2.27111e-05
2.41567e-05
2.60635e-05
2.86194e-05
3.21616e-05
3.72866e-05
4.51201e-05
5.8712e-05
8.98474e-05
0.000172647
0.00115037
0.000108857
3.17219e-05
2.0685e-05
1.45176e-05
1.15971e-05
9.70805e-06
8.31375e-06
7.28669e-06
6.50783e-06
5.91149e-06
5.46193e-06
5.13535e-06
4.91233e-06
4.77308e-06
4.7055e-06
4.70436e-06
4.7699e-06
4.90803e-06
5.13194e-06
5.46147e-06
5.91262e-06
6.51107e-06
7.29837e-06
8.34054e-06
9.74912e-06
1.166e-05
1.4627e-05
2.08795e-05
3.23507e-05
0.000109934
8.47229e-05
2.28387e-05
1.1526e-05
5.82454e-06
3.73165e-06
2.90034e-06
2.44308e-06
2.12349e-06
1.88398e-06
1.70222e-06
1.56652e-06
1.47002e-06
1.40477e-06
1.36431e-06
1.34515e-06
1.34567e-06
1.36602e-06
1.40805e-06
1.47586e-06
1.57781e-06
1.7183e-06
1.9049e-06
2.14806e-06
2.46639e-06
2.9136e-06
3.72902e-06
5.82078e-06
1.16146e-05
2.31697e-05
8.51514e-05
5.76931e-05
1.65665e-05
6.62428e-06
2.79162e-06
1.54454e-06
1.14371e-06
9.81407e-07
8.87214e-07
8.18723e-07
7.6576e-07
7.2515e-07
6.95094e-07
6.74189e-07
6.611e-07
6.54976e-07
6.55425e-07
6.62494e-07
6.7667e-07
6.98906e-07
7.30527e-07
7.72551e-07
8.26298e-07
8.93971e-07
9.8443e-07
1.13878e-06
1.52834e-06
2.76978e-06
6.66923e-06
1.67626e-05
5.77498e-05
4.43437e-05
1.17416e-05
4.17934e-06
1.68679e-06
9.42158e-07
6.94184e-07
6.00172e-07
5.55433e-07
5.27303e-07
5.05185e-07
4.88582e-07
4.76193e-07
4.67729e-07
4.62454e-07
4.60078e-07
4.60494e-07
4.63711e-07
4.69833e-07
4.7907e-07
4.91842e-07
5.08676e-07
5.30218e-07
5.56933e-07
5.99116e-07
6.89288e-07
9.3304e-07
1.68111e-06
4.21388e-06
1.18399e-05
4.42494e-05
3.62127e-05
8.85141e-06
2.89458e-06
1.2137e-06
7.19202e-07
5.43049e-07
4.68427e-07
4.35685e-07
4.19943e-07
4.10032e-07
4.02847e-07
3.97488e-07
3.9372e-07
3.91373e-07
3.90355e-07
3.90633e-07
3.92192e-07
3.9503e-07
3.99155e-07
4.0461e-07
4.11545e-07
4.20665e-07
4.3521e-07
4.6671e-07
5.40144e-07
7.16485e-07
1.21642e-06
2.92382e-06
8.90014e-06
3.60898e-05
3.07191e-05
7.0362e-06
2.18177e-06
9.66536e-07
6.10863e-07
4.73723e-07
4.14701e-07
3.88334e-07
3.76098e-07
3.69817e-07
3.66063e-07
3.63554e-07
3.61859e-07
3.60829e-07
3.60409e-07
3.60578e-07
3.61317e-07
3.62602e-07
3.64421e-07
3.66846e-07
3.70237e-07
3.75846e-07
3.87251e-07
4.13017e-07
4.72542e-07
6.11295e-07
9.72062e-07
2.20406e-06
7.05525e-06
3.06394e-05
2.68136e-05
5.8735e-06
1.76418e-06
8.2231e-07
5.4753e-07
4.3794e-07
3.8975e-07
3.67178e-07
3.56568e-07
3.51559e-07
3.49088e-07
3.47764e-07
3.47007e-07
3.46597e-07
3.46454e-07
3.46548e-07
3.46861e-07
3.47385e-07
3.48154e-07
3.49347e-07
3.51524e-07
3.56122e-07
3.66369e-07
3.88933e-07
4.37855e-07
5.49204e-07
8.27598e-07
1.77946e-06
5.8819e-06
2.67544e-05
2.41051e-05
5.09687e-06
1.50676e-06
7.32532e-07
5.06566e-07
4.16856e-07
3.76324e-07
3.56818e-07
3.47447e-07
3.4309e-07
3.41142e-07
3.40297e-07
3.39938e-07
3.398e-07
3.39775e-07
3.39822e-07
3.39928e-07
3.40106e-07
3.40439e-07
3.41179e-07
3.42954e-07
3.47136e-07
3.56461e-07
3.76231e-07
4.175e-07
5.08383e-07
7.36535e-07
1.51601e-06
5.09706e-06
2.40418e-05
2.21027e-05
4.55912e-06
1.33935e-06
6.73294e-07
4.77847e-07
4.02564e-07
3.68038e-07
3.51192e-07
3.42977e-07
3.39132e-07
3.37458e-07
3.36805e-07
3.36595e-07
3.36555e-07
3.36569e-07
3.3659e-07
3.3661e-07
3.36659e-07
3.36844e-07
3.37438e-07
3.39043e-07
3.42865e-07
3.5119e-07
3.68374e-07
4.03535e-07
4.79763e-07
6.75979e-07
1.34399e-06
4.55485e-06
2.20554e-05
2.06088e-05
4.17873e-06
1.22636e-06
6.32981e-07
4.59121e-07
3.92646e-07
3.62461e-07
3.47788e-07
3.40617e-07
3.3724e-07
3.35765e-07
3.35199e-07
3.35032e-07
3.35013e-07
3.3503e-07
3.35038e-07
3.35034e-07
3.35054e-07
3.3521e-07
3.35757e-07
3.37229e-07
3.40659e-07
3.47987e-07
3.62961e-07
3.93602e-07
4.60601e-07
6.34578e-07
1.22819e-06
4.17259e-06
2.05741e-05
1.95114e-05
3.91047e-06
1.14934e-06
6.05122e-07
4.46112e-07
3.8566e-07
3.5856e-07
3.45555e-07
3.3925e-07
3.36282e-07
3.34975e-07
3.34462e-07
3.34301e-07
3.34274e-07
3.34282e-07
3.34286e-07
3.34284e-07
3.34313e-07
3.34475e-07
3.34996e-07
3.36335e-07
3.39379e-07
3.45829e-07
3.59058e-07
3.86438e-07
4.47123e-07
6.05975e-07
1.14949e-06
3.90368e-06
1.9485e-05
1.87388e-05
3.72728e-06
1.09794e-06
5.86197e-07
4.37175e-07
3.80821e-07
3.55858e-07
3.44053e-07
3.38403e-07
3.3576e-07
3.34588e-07
3.34114e-07
3.33951e-07
3.33912e-07
3.3391e-07
3.33913e-07
3.3392e-07
3.33966e-07
3.34139e-07
3.34634e-07
3.35849e-07
3.38567e-07
3.44334e-07
3.56289e-07
3.81407e-07
4.37837e-07
5.86621e-07
1.09716e-06
3.7204e-06
1.87177e-05
1.8246e-05
3.61278e-06
1.06622e-06
5.74178e-07
4.31496e-07
3.77735e-07
3.54131e-07
3.43103e-07
3.37887e-07
3.35467e-07
3.34391e-07
3.33946e-07
3.33782e-07
3.33733e-07
3.33723e-07
3.33726e-07
3.33742e-07
3.33801e-07
3.33981e-07
3.34453e-07
3.35572e-07
3.3806e-07
3.43365e-07
3.54496e-07
3.78181e-07
4.31934e-07
5.74326e-07
1.065e-06
3.60603e-06
1.82279e-05
1.80061e-05
3.55762e-06
1.05105e-06
5.68383e-07
4.28732e-07
3.76227e-07
3.53284e-07
3.42636e-07
3.37636e-07
3.35329e-07
3.34303e-07
3.33874e-07
3.33709e-07
3.33655e-07
3.33642e-07
3.33645e-07
3.33665e-07
3.3373e-07
3.33911e-07
3.34369e-07
3.35438e-07
3.37807e-07
3.42882e-07
3.53609e-07
3.76604e-07
4.29072e-07
5.68424e-07
1.04973e-06
3.55109e-06
1.79891e-05
1.80063e-05
3.55765e-06
1.05105e-06
5.68383e-07
4.28733e-07
3.76225e-07
3.53281e-07
3.42631e-07
3.3763e-07
3.35322e-07
3.34297e-07
3.33868e-07
3.33704e-07
3.3365e-07
3.33637e-07
3.33639e-07
3.33658e-07
3.33722e-07
3.33902e-07
3.34359e-07
3.35427e-07
3.37795e-07
3.42872e-07
3.53602e-07
3.76603e-07
4.29082e-07
5.68453e-07
1.04984e-06
3.5513e-06
1.79891e-05
1.82469e-05
3.61294e-06
1.06626e-06
5.74187e-07
4.31503e-07
3.77734e-07
3.54121e-07
3.43087e-07
3.37868e-07
3.35448e-07
3.34374e-07
3.33931e-07
3.33768e-07
3.33719e-07
3.3371e-07
3.33711e-07
3.33724e-07
3.33779e-07
3.33954e-07
3.34422e-07
3.35539e-07
3.38025e-07
3.43333e-07
3.54472e-07
3.78176e-07
4.31962e-07
5.7441e-07
1.06533e-06
3.60666e-06
1.82279e-05
1.87401e-05
3.72761e-06
1.09807e-06
5.86239e-07
4.37204e-07
3.80827e-07
3.55844e-07
3.44026e-07
3.38371e-07
3.35728e-07
3.3456e-07
3.34091e-07
3.33932e-07
3.33894e-07
3.33891e-07
3.3389e-07
3.33893e-07
3.33932e-07
3.34097e-07
3.34585e-07
3.35792e-07
3.38507e-07
3.44275e-07
3.56241e-07
3.81387e-07
4.37869e-07
5.86746e-07
1.09768e-06
3.72145e-06
1.8718e-05
1.95128e-05
3.91108e-06
1.14967e-06
6.0523e-07
4.46184e-07
3.85683e-07
3.58543e-07
3.45515e-07
3.39203e-07
3.36239e-07
3.3494e-07
3.34436e-07
3.34281e-07
3.34258e-07
3.34264e-07
3.34263e-07
3.34253e-07
3.34272e-07
3.34422e-07
3.34929e-07
3.36255e-07
3.3929e-07
3.45738e-07
3.58977e-07
3.86388e-07
4.4714e-07
6.06115e-07
1.1502e-06
3.90524e-06
1.94859e-05
2.06102e-05
4.17982e-06
1.22707e-06
6.3322e-07
4.59261e-07
3.92685e-07
3.62432e-07
3.47726e-07
3.40551e-07
3.37186e-07
3.35729e-07
3.3518e-07
3.35023e-07
3.35009e-07
3.35023e-07
3.35025e-07
3.35009e-07
3.35014e-07
3.35151e-07
3.35678e-07
3.3713e-07
3.40541e-07
3.47857e-07
3.62835e-07
3.93506e-07
4.6058e-07
6.34726e-07
1.2291e-06
4.17483e-06
2.05763e-05
2.21033e-05
4.56106e-06
1.34073e-06
6.73743e-07
4.7806e-07
4.02597e-07
3.67973e-07
3.51093e-07
3.42888e-07
3.39074e-07
3.37434e-07
3.36808e-07
3.36613e-07
3.36579e-07
3.36588e-07
3.36599e-07
3.36603e-07
3.36631e-07
3.36792e-07
3.37357e-07
3.38932e-07
3.42723e-07
3.51023e-07
3.68197e-07
4.03379e-07
4.79685e-07
6.76113e-07
1.34512e-06
4.55805e-06
2.20596e-05
2.41044e-05
5.10022e-06
1.50934e-06
7.33264e-07
5.06777e-07
4.16826e-07
3.76183e-07
3.56666e-07
3.47341e-07
3.43048e-07
3.41156e-07
3.40348e-07
3.40008e-07
3.39873e-07
3.39839e-07
3.3987e-07
3.39955e-07
3.40107e-07
3.40409e-07
3.41113e-07
3.42848e-07
3.46986e-07
3.56269e-07
3.7601e-07
4.17284e-07
5.08269e-07
7.36646e-07
1.51743e-06
5.10148e-06
2.4049e-05
2.68111e-05
5.87904e-06
1.7683e-06
8.23345e-07
5.47714e-07
4.37781e-07
3.89495e-07
3.66973e-07
3.56473e-07
3.51574e-07
3.49183e-07
3.47902e-07
3.47161e-07
3.46746e-07
3.46585e-07
3.46654e-07
3.46939e-07
3.47431e-07
3.48164e-07
3.49317e-07
3.51448e-07
3.55995e-07
3.66186e-07
3.88699e-07
4.37601e-07
5.49028e-07
8.27737e-07
1.78157e-06
5.88814e-06
2.67624e-05
3.07152e-05
7.04596e-06
2.18812e-06
9.67752e-07
6.10831e-07
4.73376e-07
4.1433e-07
3.88129e-07
3.76093e-07
3.69969e-07
3.66305e-07
3.63834e-07
3.62139e-07
3.61085e-07
3.60632e-07
3.60763e-07
3.61464e-07
3.62711e-07
3.64491e-07
3.66874e-07
3.70222e-07
3.75784e-07
3.87135e-07
4.12841e-07
4.72341e-07
6.11129e-07
9.724e-07
2.2079e-06
7.0663e-06
3.06538e-05
3.6214e-05
8.87215e-06
2.90373e-06
1.21466e-06
7.18649e-07
5.42438e-07
4.68083e-07
4.35641e-07
4.20184e-07
4.10446e-07
4.03326e-07
3.97976e-07
3.94172e-07
3.91769e-07
3.90693e-07
3.90916e-07
3.92426e-07
3.95219e-07
3.99301e-07
4.04715e-07
4.11617e-07
4.20708e-07
4.35218e-07
4.6666e-07
5.40043e-07
7.16449e-07
1.21723e-06
2.9308e-06
8.92312e-06
3.61298e-05
4.43605e-05
1.17735e-05
4.19108e-06
1.68695e-06
9.40786e-07
6.93394e-07
6.00102e-07
5.5587e-07
5.28016e-07
5.06015e-07
4.89381e-07
4.76975e-07
4.68403e-07
4.63017e-07
4.60549e-07
4.60891e-07
4.64049e-07
4.70125e-07
4.79323e-07
4.92038e-07
5.0886e-07
5.30408e-07
5.57125e-07
5.9931e-07
6.89524e-07
9.33652e-07
1.68334e-06
4.22444e-06
1.18689e-05
4.43144e-05
5.77506e-05
1.66198e-05
6.64274e-06
2.79192e-06
1.54281e-06
1.1435e-06
9.82549e-07
8.88922e-07
8.20486e-07
7.67312e-07
7.264e-07
6.96025e-07
6.74883e-07
6.61633e-07
6.55405e-07
6.55789e-07
6.62822e-07
6.76988e-07
6.99251e-07
7.30875e-07
7.72943e-07
8.26927e-07
8.94689e-07
9.85442e-07
1.14019e-06
1.53086e-06
2.77804e-06
6.68901e-06
1.68001e-05
5.78515e-05
8.48731e-05
2.29166e-05
1.15541e-05
5.83066e-06
3.73558e-06
2.90601e-06
2.45003e-06
2.12971e-06
1.88889e-06
1.70589e-06
1.56908e-06
1.47119e-06
1.40549e-06
1.3648e-06
1.34553e-06
1.34603e-06
1.36641e-06
1.40854e-06
1.4769e-06
1.57906e-06
1.71979e-06
1.90695e-06
2.15134e-06
2.47169e-06
2.92082e-06
3.73888e-06
5.83511e-06
1.1638e-05
2.3205e-05
8.52968e-05
0.000109136
3.18549e-05
2.07322e-05
1.45481e-05
1.16177e-05
9.72253e-06
8.32329e-06
7.29084e-06
6.5093e-06
5.91187e-06
5.46154e-06
5.13398e-06
4.91062e-06
4.77149e-06
4.70427e-06
4.70361e-06
4.76974e-06
4.90855e-06
5.13326e-06
5.46361e-06
5.91591e-06
6.51629e-06
7.30686e-06
8.35617e-06
9.77025e-06
1.16866e-05
1.46571e-05
2.09115e-05
3.23998e-05
0.000110106
0.00114272
0.000171623
8.96248e-05
5.87427e-05
4.52471e-05
3.7437e-05
3.23052e-05
2.87429e-05
2.61585e-05
2.42059e-05
2.2745e-05
2.1685e-05
2.09745e-05
2.0524e-05
2.03023e-05
2.02974e-05
2.05089e-05
2.09488e-05
2.16513e-05
2.27099e-05
2.41576e-05
2.60707e-05
2.86324e-05
3.21838e-05
3.73208e-05
4.51687e-05
5.87793e-05
8.99514e-05
0.000172853
0.00115169
0.000921605
0.00013697
7.49892e-05
5.10899e-05
4.05417e-05
3.42001e-05
2.98222e-05
2.66338e-05
2.427e-05
2.25446e-05
2.12647e-05
2.03216e-05
1.96459e-05
1.92177e-05
1.90137e-05
1.90222e-05
1.92438e-05
1.96904e-05
2.03839e-05
2.13407e-05
2.26443e-05
2.44251e-05
2.68243e-05
3.00324e-05
3.44087e-05
4.07096e-05
5.11347e-05
7.47003e-05
0.00013565
0.000910394
8.96715e-05
3.17356e-05
2.15939e-05
1.63486e-05
1.387e-05
1.2406e-05
1.13035e-05
1.03428e-05
9.49177e-06
8.77766e-06
8.20843e-06
7.77343e-06
7.45938e-06
7.2571e-06
7.15949e-06
7.1624e-06
7.26537e-06
7.4714e-06
7.7859e-06
8.21722e-06
8.78136e-06
9.48891e-06
1.03289e-05
1.12696e-05
1.23463e-05
1.3781e-05
1.62149e-05
2.13653e-05
3.09893e-05
8.84463e-05
7.14315e-05
2.14077e-05
1.31614e-05
8.50024e-06
6.08905e-06
4.77947e-06
3.97672e-06
3.42969e-06
3.03011e-06
2.72843e-06
2.5025e-06
2.33652e-06
2.2206e-06
2.14767e-06
2.1125e-06
2.11242e-06
2.14718e-06
2.21895e-06
2.33229e-06
2.49242e-06
2.71249e-06
3.00854e-06
3.40475e-06
3.95383e-06
4.77605e-06
6.1082e-06
8.51519e-06
1.30675e-05
2.10899e-05
7.0908e-05
4.99149e-05
1.72596e-05
9.09004e-06
4.99352e-06
2.95072e-06
1.96375e-06
1.4905e-06
1.24129e-06
1.09365e-06
9.89291e-07
9.13436e-07
8.59132e-07
8.21777e-07
7.98434e-07
7.87146e-07
7.86942e-07
7.97768e-07
8.20514e-07
8.57134e-07
9.10754e-07
9.86196e-07
1.09124e-06
1.24231e-06
1.50225e-06
2.00285e-06
3.01268e-06
5.03963e-06
9.02285e-06
1.70172e-05
4.97487e-05
3.89538e-05
1.3444e-05
6.42855e-06
3.07858e-06
1.59946e-06
1.00021e-06
7.43507e-07
6.25856e-07
5.63271e-07
5.23025e-07
4.95038e-07
4.75012e-07
4.60339e-07
4.51029e-07
4.46444e-07
4.46183e-07
4.50266e-07
4.59129e-07
4.73579e-07
4.94423e-07
5.23051e-07
5.64785e-07
6.31017e-07
7.58559e-07
1.03082e-06
1.64563e-06
3.106e-06
6.36991e-06
1.32993e-05
3.9028e-05
3.21766e-05
1.11099e-05
4.58252e-06
1.96527e-06
1.00621e-06
6.48962e-07
5.00997e-07
4.32436e-07
3.93751e-07
3.70343e-07
3.55021e-07
3.44569e-07
3.37399e-07
3.32883e-07
3.30649e-07
3.30506e-07
3.32487e-07
3.36853e-07
3.44094e-07
3.55017e-07
3.71243e-07
3.96397e-07
4.38026e-07
5.1236e-07
6.66213e-07
1.02502e-06
1.96984e-06
4.53731e-06
1.10441e-05
3.23139e-05
2.75614e-05
9.38876e-06
3.3964e-06
1.3704e-06
7.258e-07
4.97704e-07
4.00312e-07
3.53376e-07
3.27824e-07
3.12549e-07
3.0284e-07
2.96427e-07
2.92197e-07
2.89589e-07
2.88297e-07
2.8819e-07
2.893e-07
2.91835e-07
2.96195e-07
3.03065e-07
3.13656e-07
3.30386e-07
3.5799e-07
4.06984e-07
5.03925e-07
7.30742e-07
1.36946e-06
3.36981e-06
9.36311e-06
2.7669e-05
2.42852e-05
8.04017e-06
2.65587e-06
1.0576e-06
5.8638e-07
4.20707e-07
3.4989e-07
3.16335e-07
2.98199e-07
2.87436e-07
2.8067e-07
2.76286e-07
2.73457e-07
2.71739e-07
2.70898e-07
2.70839e-07
2.71589e-07
2.73307e-07
2.76294e-07
2.81057e-07
2.88454e-07
3.0007e-07
3.19137e-07
3.53242e-07
4.23573e-07
5.87692e-07
1.0555e-06
2.63842e-06
8.0285e-06
2.43707e-05
2.18178e-05
6.98971e-06
2.18182e-06
8.75665e-07
5.08575e-07
3.75693e-07
3.21818e-07
2.96481e-07
2.82956e-07
2.75075e-07
2.70207e-07
2.67104e-07
2.65129e-07
2.63944e-07
2.63372e-07
2.63345e-07
2.63884e-07
2.651e-07
2.67207e-07
2.70565e-07
2.75797e-07
2.84079e-07
2.97891e-07
3.23191e-07
3.76587e-07
5.08503e-07
8.73674e-07
2.17175e-06
6.98987e-06
2.18955e-05
1.99923e-05
6.19111e-06
1.86923e-06
7.635e-07
4.58088e-07
3.48561e-07
3.0529e-07
2.85054e-07
2.745e-07
2.68537e-07
2.64963e-07
2.6274e-07
2.61348e-07
2.60522e-07
2.60129e-07
2.60119e-07
2.60505e-07
2.61362e-07
2.62839e-07
2.65202e-07
2.68943e-07
2.75037e-07
2.85585e-07
3.05581e-07
3.48425e-07
4.57115e-07
7.62166e-07
1.86686e-06
6.20006e-06
2.00533e-05
1.86467e-05
5.59834e-06
1.66005e-06
6.92084e-07
4.2643e-07
3.32796e-07
2.95579e-07
2.78404e-07
2.69696e-07
2.6497e-07
2.62258e-07
2.60634e-07
2.59644e-07
2.59066e-07
2.58794e-07
2.58791e-07
2.59062e-07
2.59658e-07
2.6069e-07
2.62371e-07
2.6513e-07
2.69848e-07
2.78435e-07
2.95328e-07
3.32111e-07
4.25474e-07
6.91374e-07
1.66e-06
5.61171e-06
1.86949e-05
1.76704e-05
5.17029e-06
1.51793e-06
6.4537e-07
4.0623e-07
3.23218e-07
2.89867e-07
2.74567e-07
2.66984e-07
2.63023e-07
2.60857e-07
2.59621e-07
2.58896e-07
2.58482e-07
2.58291e-07
2.58288e-07
2.58477e-07
2.58895e-07
2.5963e-07
2.60872e-07
2.63024e-07
2.66922e-07
2.74368e-07
2.89448e-07
3.22546e-07
4.05548e-07
6.45118e-07
1.51918e-06
5.18514e-06
1.77097e-05
1.69902e-05
4.87487e-06
1.42377e-06
6.1521e-07
3.93368e-07
3.17332e-07
2.86513e-07
2.72391e-07
2.65489e-07
2.61983e-07
2.60144e-07
2.59143e-07
2.58581e-07
2.5827e-07
2.58128e-07
2.58124e-07
2.58259e-07
2.58564e-07
2.59116e-07
2.60097e-07
2.61895e-07
2.65326e-07
2.72113e-07
2.86088e-07
3.16788e-07
3.92923e-07
6.15182e-07
1.42566e-06
4.88985e-06
1.70233e-05
1.65593e-05
4.6899e-06
1.36637e-06
5.97363e-07
3.85725e-07
3.13898e-07
2.84632e-07
2.7122e-07
2.6471e-07
2.61459e-07
2.598e-07
2.58929e-07
2.58458e-07
2.58204e-07
2.5809e-07
2.58085e-07
2.5819e-07
2.5843e-07
2.58881e-07
2.5972e-07
2.6133e-07
2.6451e-07
2.70927e-07
2.84243e-07
3.1346e-07
3.85426e-07
5.97481e-07
1.36842e-06
4.70418e-06
1.65884e-05
1.63505e-05
4.6021e-06
1.33937e-06
5.88981e-07
3.82146e-07
3.12306e-07
2.83785e-07
2.70711e-07
2.64383e-07
2.61246e-07
2.59666e-07
2.58851e-07
2.5842e-07
2.58192e-07
2.58089e-07
2.58084e-07
2.58176e-07
2.58389e-07
2.58797e-07
2.59577e-07
2.61106e-07
2.64176e-07
2.70423e-07
2.83423e-07
3.1192e-07
3.81898e-07
5.89097e-07
1.34112e-06
4.61427e-06
1.6377e-05
1.63496e-05
4.60165e-06
1.33929e-06
5.88964e-07
3.8214e-07
3.12307e-07
2.83792e-07
2.70721e-07
2.64395e-07
2.61258e-07
2.59676e-07
2.5886e-07
2.58427e-07
2.58198e-07
2.58095e-07
2.58092e-07
2.58185e-07
2.58401e-07
2.58813e-07
2.59595e-07
2.61127e-07
2.64198e-07
2.70443e-07
2.83437e-07
3.11922e-07
3.81881e-07
5.89045e-07
1.34089e-06
4.61329e-06
1.63762e-05
1.65563e-05
4.688e-06
1.36602e-06
5.97294e-07
3.85701e-07
3.13897e-07
2.84651e-07
2.71251e-07
2.64747e-07
2.61495e-07
2.59831e-07
2.58954e-07
2.58478e-07
2.58222e-07
2.58107e-07
2.58106e-07
2.58217e-07
2.58465e-07
2.58927e-07
2.59776e-07
2.61395e-07
2.64578e-07
2.7099e-07
2.84289e-07
3.13471e-07
3.85379e-07
5.97331e-07
1.36774e-06
4.70126e-06
1.65859e-05
1.6985e-05
4.87155e-06
1.42311e-06
6.15068e-07
3.93315e-07
3.17323e-07
2.86543e-07
2.72446e-07
2.65552e-07
2.62043e-07
2.60195e-07
2.59183e-07
2.58611e-07
2.58295e-07
2.58153e-07
2.58155e-07
2.58301e-07
2.5862e-07
2.5919e-07
2.6019e-07
2.62005e-07
2.65445e-07
2.72228e-07
2.86178e-07
3.16822e-07
3.92863e-07
6.14944e-07
1.42454e-06
4.88497e-06
1.70186e-05
1.76634e-05
5.16541e-06
1.51686e-06
6.45131e-07
4.0613e-07
3.23194e-07
2.89911e-07
2.7465e-07
2.67078e-07
2.63109e-07
2.60925e-07
2.5967e-07
2.58929e-07
2.58507e-07
2.58316e-07
2.58322e-07
2.58528e-07
2.58968e-07
2.5973e-07
2.61002e-07
2.6318e-07
2.67098e-07
2.74546e-07
2.896e-07
3.22628e-07
4.05505e-07
6.44827e-07
1.51761e-06
5.1781e-06
1.77022e-05
1.86381e-05
5.59147e-06
1.65838e-06
6.91694e-07
4.26268e-07
3.32762e-07
2.95652e-07
2.78529e-07
2.69828e-07
2.65081e-07
2.62337e-07
2.60682e-07
2.59669e-07
2.59079e-07
2.58808e-07
2.58817e-07
2.59112e-07
2.5974e-07
2.60809e-07
2.62532e-07
2.65331e-07
2.70081e-07
2.78682e-07
2.95556e-07
3.32268e-07
4.25487e-07
6.91046e-07
1.65793e-06
5.60201e-06
1.86837e-05
1.99825e-05
6.18141e-06
1.86663e-06
7.62883e-07
4.57884e-07
3.4859e-07
3.05436e-07
2.8525e-07
2.74682e-07
2.68671e-07
2.65041e-07
2.6277e-07
2.61346e-07
2.60506e-07
2.60115e-07
2.60123e-07
2.60541e-07
2.61439e-07
2.62965e-07
2.65382e-07
2.69178e-07
2.75318e-07
2.85896e-07
3.05886e-07
3.48657e-07
4.5722e-07
7.61855e-07
1.86427e-06
6.18705e-06
2.00369e-05
2.18074e-05
6.9761e-06
2.17583e-06
8.74708e-07
5.08459e-07
3.75866e-07
3.22117e-07
2.96788e-07
2.83196e-07
2.7522e-07
2.70261e-07
2.67089e-07
2.65073e-07
2.63872e-07
2.63307e-07
2.63305e-07
2.63885e-07
2.65153e-07
2.6732e-07
2.70744e-07
2.76043e-07