/*--------------------------------*- C++ -*----------------------------------*\
| =========                 |                                                 |
| \\      /  F ield         | OpenFOAM: The Open Source CFD Toolbox           |
|  \\    /   O peration     | Version:  2312                                  |
|   \\  /    A nd           | Website:  www.openfoam.com                      |
|    \\/     M anipulation  |                                                 |
\*---------------------------------------------------------------------------*/
FoamFile
{
    version     2.0;
    format      ascii;
    arch        "LSB;label=32;scalar=64";
    class       volScalarField;
    location    "700";
    object      k;
}
// * * * * * * * * * * * * * * * * * * * * * * * * * * * * * * * * * * * * * //

dimensions      [0 2 -2 0 0 0 0];

internalField   nonuniform List<scalar> 
27000
(
0.000258115
0.000129046
0.000107299
9.57177e-05
9.03382e-05
8.69795e-05
8.44026e-05
8.21332e-05
8.02364e-05
7.86945e-05
7.74577e-05
7.64792e-05
7.57198e-05
7.52177e-05
7.49743e-05
7.49871e-05
7.52561e-05
7.57833e-05
7.65605e-05
7.75445e-05
7.87963e-05
8.03531e-05
8.22615e-05
8.4536e-05
8.71059e-05
9.04372e-05
9.57579e-05
0.000107239
0.000128857
0.000257679
9.79344e-05
2.14004e-05
2.81728e-05
3.06228e-05
3.24135e-05
3.35941e-05
3.43442e-05
3.47941e-05
3.50435e-05
3.51939e-05
3.5296e-05
3.53687e-05
3.5417e-05
3.54463e-05
3.54603e-05
3.54604e-05
3.54464e-05
3.54164e-05
3.53661e-05
3.52906e-05
3.51856e-05
3.50315e-05
3.47794e-05
3.43294e-05
3.35792e-05
3.23949e-05
3.05957e-05
2.81157e-05
2.13334e-05
9.77806e-05
0.000101206
3.46784e-05
2.88231e-05
2.73811e-05
2.80646e-05
2.89397e-05
2.96741e-05
3.02887e-05
3.07708e-05
3.11449e-05
3.14365e-05
3.16607e-05
3.18242e-05
3.19296e-05
3.19788e-05
3.1973e-05
3.19123e-05
3.17961e-05
3.16235e-05
3.13927e-05
3.10972e-05
3.07243e-05
3.0252e-05
2.96594e-05
2.89503e-05
2.80962e-05
2.7422e-05
2.8813e-05
3.45525e-05
0.000101134
9.49059e-05
3.51297e-05
2.87884e-05
2.86711e-05
2.95339e-05
3.03124e-05
3.09105e-05
3.13737e-05
3.1735e-05
3.20143e-05
3.22314e-05
3.2398e-05
3.25195e-05
3.25978e-05
3.26336e-05
3.26272e-05
3.25791e-05
3.24901e-05
3.23608e-05
3.21908e-05
3.19762e-05
3.17076e-05
3.1367e-05
3.09319e-05
3.03633e-05
2.9608e-05
2.87463e-05
2.88129e-05
3.50655e-05
9.49198e-05
9.04507e-05
3.41525e-05
2.90549e-05
2.98102e-05
3.08381e-05
3.1585e-05
3.20993e-05
3.24593e-05
3.27183e-05
3.29072e-05
3.30478e-05
3.31523e-05
3.3227e-05
3.32745e-05
3.32953e-05
3.32899e-05
3.3259e-05
3.32037e-05
3.31246e-05
3.3021e-05
3.2888e-05
3.27143e-05
3.24776e-05
3.21424e-05
3.1649e-05
3.09113e-05
2.98698e-05
2.90709e-05
3.41196e-05
9.05224e-05
8.67878e-05
3.38864e-05
2.94575e-05
3.05581e-05
3.16552e-05
3.23945e-05
3.28714e-05
3.3177e-05
3.33738e-05
3.35016e-05
3.35862e-05
3.36431e-05
3.36808e-05
3.37033e-05
3.37121e-05
3.37081e-05
3.36921e-05
3.36648e-05
3.36259e-05
3.35728e-05
3.34978e-05
3.33849e-05
3.32063e-05
3.29176e-05
3.24509e-05
3.17082e-05
3.05907e-05
2.9458e-05
3.38677e-05
8.68851e-05
8.36303e-05
3.3932e-05
3.00699e-05
3.11581e-05
3.22004e-05
3.2901e-05
3.33442e-05
3.36129e-05
3.37689e-05
3.38555e-05
3.39013e-05
3.39245e-05
3.39356e-05
3.39399e-05
3.39401e-05
3.39375e-05
3.39327e-05
3.39259e-05
3.39156e-05
3.38972e-05
3.38602e-05
3.37854e-05
3.36414e-05
3.33814e-05
3.29391e-05
3.22278e-05
3.11629e-05
3.00469e-05
3.3917e-05
8.37341e-05
8.08834e-05
3.40874e-05
3.07133e-05
3.1682e-05
3.26098e-05
3.3237e-05
3.36316e-05
3.38628e-05
3.39862e-05
3.40433e-05
3.4063e-05
3.40641e-05
3.4058e-05
3.40507e-05
3.40456e-05
3.4044e-05
3.40466e-05
3.40529e-05
3.40607e-05
3.40639e-05
3.40508e-05
3.40013e-05
3.38841e-05
3.36549e-05
3.32554e-05
3.26147e-05
3.16675e-05
3.0683e-05
3.40786e-05
8.09847e-05
7.83538e-05
3.42416e-05
3.12595e-05
3.21173e-05
3.2929e-05
3.34726e-05
3.38091e-05
3.39994e-05
3.4093e-05
3.41276e-05
3.413e-05
3.41179e-05
3.41022e-05
3.40889e-05
3.4081e-05
3.40802e-05
3.40867e-05
3.40999e-05
3.41172e-05
3.41323e-05
3.4134e-05
3.41033e-05
3.40115e-05
3.38191e-05
3.34752e-05
3.29191e-05
3.20939e-05
3.12302e-05
3.42405e-05
7.84692e-05
7.61925e-05
3.43713e-05
3.16999e-05
3.24665e-05
3.31766e-05
3.36427e-05
3.39216e-05
3.40712e-05
3.41374e-05
3.41542e-05
3.41454e-05
3.41265e-05
3.41068e-05
3.40913e-05
3.40828e-05
3.40824e-05
3.40903e-05
3.41058e-05
3.41265e-05
3.41472e-05
3.41578e-05
3.41421e-05
3.4075e-05
3.39214e-05
3.36352e-05
3.31598e-05
3.24416e-05
3.16754e-05
3.43759e-05
7.62946e-05
7.44128e-05
3.44749e-05
3.20451e-05
3.27421e-05
3.33699e-05
3.37682e-05
3.39953e-05
3.41082e-05
3.41506e-05
3.41535e-05
3.41379e-05
3.41162e-05
3.40958e-05
3.40807e-05
3.40727e-05
3.40724e-05
3.40801e-05
3.40952e-05
3.41158e-05
3.41381e-05
3.41541e-05
3.41505e-05
3.41058e-05
3.39886e-05
3.37557e-05
3.33511e-05
3.27196e-05
3.20265e-05
3.44831e-05
7.45005e-05
7.30053e-05
3.45534e-05
3.23059e-05
3.29518e-05
3.35165e-05
3.38605e-05
3.40449e-05
3.41275e-05
3.41506e-05
3.41433e-05
3.41233e-05
3.41011e-05
3.4082e-05
3.40684e-05
3.40613e-05
3.4061e-05
3.40677e-05
3.40811e-05
3.41e-05
3.4122e-05
3.41411e-05
3.4147e-05
3.41212e-05
3.4035e-05
3.38463e-05
3.34987e-05
3.2933e-05
3.22925e-05
3.45637e-05
7.30814e-05
7.19601e-05
3.46091e-05
3.2492e-05
3.31024e-05
3.36216e-05
3.39256e-05
3.40781e-05
3.41378e-05
3.41467e-05
3.41322e-05
3.41099e-05
3.40881e-05
3.40707e-05
3.40588e-05
3.40527e-05
3.40525e-05
3.40581e-05
3.40694e-05
3.40863e-05
3.41071e-05
3.41282e-05
3.41409e-05
3.41295e-05
3.40669e-05
3.39116e-05
3.36058e-05
3.30872e-05
3.24827e-05
3.46207e-05
7.20278e-05
7.12683e-05
3.46446e-05
3.26116e-05
3.31995e-05
3.36894e-05
3.39672e-05
3.40987e-05
3.41434e-05
3.4143e-05
3.4124e-05
3.41005e-05
3.40794e-05
3.40635e-05
3.4053e-05
3.40477e-05
3.40474e-05
3.40521e-05
3.40619e-05
3.4077e-05
3.40969e-05
3.41189e-05
3.4136e-05
3.41342e-05
3.40872e-05
3.39539e-05
3.36754e-05
3.3187e-05
3.26049e-05
3.46567e-05
7.13307e-05
7.09236e-05
3.46616e-05
3.26698e-05
3.32469e-05
3.37224e-05
3.39874e-05
3.41086e-05
3.41459e-05
3.4141e-05
3.41198e-05
3.40958e-05
3.40753e-05
3.40601e-05
3.40503e-05
3.40455e-05
3.40452e-05
3.40494e-05
3.40584e-05
3.40726e-05
3.40919e-05
3.41144e-05
3.41337e-05
3.41365e-05
3.40973e-05
3.39748e-05
3.37096e-05
3.32358e-05
3.26644e-05
3.46739e-05
7.09835e-05
7.09226e-05
3.46612e-05
3.26695e-05
3.32466e-05
3.37222e-05
3.39873e-05
3.41086e-05
3.41459e-05
3.41412e-05
3.412e-05
3.4096e-05
3.40754e-05
3.40602e-05
3.40504e-05
3.40455e-05
3.40453e-05
3.40495e-05
3.40586e-05
3.40729e-05
3.40923e-05
3.41147e-05
3.41341e-05
3.41368e-05
3.40975e-05
3.39749e-05
3.37095e-05
3.32355e-05
3.26639e-05
3.46732e-05
7.09827e-05
7.12653e-05
3.46434e-05
3.26106e-05
3.31986e-05
3.36887e-05
3.39669e-05
3.40987e-05
3.41436e-05
3.41434e-05
3.41244e-05
3.41008e-05
3.40797e-05
3.40636e-05
3.40531e-05
3.40478e-05
3.40476e-05
3.40524e-05
3.40624e-05
3.40778e-05
3.40978e-05
3.412e-05
3.41371e-05
3.41351e-05
3.4088e-05
3.39542e-05
3.36752e-05
3.31862e-05
3.26035e-05
3.46546e-05
7.1328e-05
7.19555e-05
3.4607e-05
3.24903e-05
3.31008e-05
3.36206e-05
3.39251e-05
3.40782e-05
3.41383e-05
3.41474e-05
3.41329e-05
3.41104e-05
3.40885e-05
3.40709e-05
3.40589e-05
3.40528e-05
3.40527e-05
3.40585e-05
3.40702e-05
3.40875e-05
3.41087e-05
3.41299e-05
3.41427e-05
3.41312e-05
3.40682e-05
3.39123e-05
3.36057e-05
3.3086e-05
3.24804e-05
3.4617e-05
7.20228e-05
7.29996e-05
3.45503e-05
3.23032e-05
3.29495e-05
3.3515e-05
3.386e-05
3.40453e-05
3.41284e-05
3.41518e-05
3.41443e-05
3.41241e-05
3.41015e-05
3.4082e-05
3.40682e-05
3.40611e-05
3.4061e-05
3.40681e-05
3.4082e-05
3.41015e-05
3.41239e-05
3.41435e-05
3.41495e-05
3.41237e-05
3.40371e-05
3.38477e-05
3.3499e-05
3.29318e-05
3.22896e-05
3.45585e-05
7.30735e-05
7.44066e-05
3.44707e-05
3.20413e-05
3.27392e-05
3.33683e-05
3.37681e-05
3.39963e-05
3.41098e-05
3.41523e-05
3.41549e-05
3.41386e-05
3.41162e-05
3.40954e-05
3.408e-05
3.40719e-05
3.40719e-05
3.40801e-05
3.40959e-05
3.41174e-05
3.41404e-05
3.41569e-05
3.41537e-05
3.41092e-05
3.39917e-05
3.3758e-05
3.33522e-05
3.27187e-05
3.20232e-05
3.44763e-05
7.44888e-05
7.61867e-05
3.43658e-05
3.16948e-05
3.24631e-05
3.31754e-05
3.36435e-05
3.39237e-05
3.40738e-05
3.41397e-05
3.41557e-05
3.4146e-05
3.41261e-05
3.41056e-05
3.40897e-05
3.40812e-05
3.40811e-05
3.40897e-05
3.41061e-05
3.41279e-05
3.41495e-05
3.4161e-05
3.41459e-05
3.40791e-05
3.39253e-05
3.36386e-05
3.31618e-05
3.24415e-05
3.16721e-05
3.43674e-05
7.62782e-05
7.8349e-05
3.42343e-05
3.12532e-05
3.2114e-05
3.2929e-05
3.34751e-05
3.38129e-05
3.40032e-05
3.40959e-05
3.41291e-05
3.41299e-05
3.41165e-05
3.40998e-05
3.4086e-05
3.40782e-05
3.40778e-05
3.40853e-05
3.40996e-05
3.41181e-05
3.41344e-05
3.41372e-05
3.41073e-05
3.4016e-05
3.38237e-05
3.34794e-05
3.29222e-05
3.20946e-05
3.1227e-05
3.42301e-05
7.84474e-05
8.08795e-05
3.40779e-05
3.07062e-05
3.168e-05
3.26123e-05
3.32422e-05
3.36375e-05
3.38679e-05
3.39895e-05
3.40443e-05
3.40619e-05
3.40613e-05
3.4054e-05
3.40463e-05
3.40413e-05
3.40403e-05
3.4044e-05
3.40517e-05
3.40609e-05
3.40655e-05
3.40537e-05
3.40052e-05
3.38887e-05
3.36598e-05
3.326e-05
3.26184e-05
3.16689e-05
3.06798e-05
3.40663e-05
8.0961e-05
8.36261e-05
3.39202e-05
3.00634e-05
3.11592e-05
3.22066e-05
3.29093e-05
3.33521e-05
3.36186e-05
3.37717e-05
3.38552e-05
3.38984e-05
3.39197e-05
3.39296e-05
3.39336e-05
3.39342e-05
3.39324e-05
3.39289e-05
3.39236e-05
3.3915e-05
3.38982e-05
3.38626e-05
3.37888e-05
3.36456e-05
3.33859e-05
3.29434e-05
3.22313e-05
3.11643e-05
3.00433e-05
3.39022e-05
8.37046e-05
8.67811e-05
3.3873e-05
2.94551e-05
3.05638e-05
3.16655e-05
3.24055e-05
3.28801e-05
3.3182e-05
3.33746e-05
3.34988e-05
3.35806e-05
3.36358e-05
3.36727e-05
3.36951e-05
3.37045e-05
3.37016e-05
3.3687e-05
3.36613e-05
3.36242e-05
3.35728e-05
3.34993e-05
3.33875e-05
3.32096e-05
3.29212e-05
3.24542e-05
3.17107e-05
3.05912e-05
2.9454e-05
3.38508e-05
8.68489e-05
9.04379e-05
3.41345e-05
2.90537e-05
2.98195e-05
3.08509e-05
3.15962e-05
3.21063e-05
3.24612e-05
3.27153e-05
3.29006e-05
3.30389e-05
3.31422e-05
3.32167e-05
3.32645e-05
3.32862e-05
3.32821e-05
3.32527e-05
3.3199e-05
3.31217e-05
3.30198e-05
3.28883e-05
3.27157e-05
3.24797e-05
3.21446e-05
3.16506e-05
3.09116e-05
2.98677e-05
2.90636e-05
3.40975e-05
9.04793e-05
9.48813e-05
3.51035e-05
2.87862e-05
2.86813e-05
2.95452e-05
3.03198e-05
3.09121e-05
3.13697e-05
3.17266e-05
3.20034e-05
3.22193e-05
3.23856e-05
3.25076e-05
3.25868e-05
3.26237e-05
3.26185e-05
3.25718e-05
3.24842e-05
3.23565e-05
3.2188e-05
3.19747e-05
3.17072e-05
3.13674e-05
3.09324e-05
3.0363e-05
2.96057e-05
2.87404e-05
2.87998e-05
3.50372e-05
9.48702e-05
0.000101165
3.46414e-05
2.881e-05
2.73824e-05
2.80662e-05
2.8938e-05
2.96667e-05
3.02779e-05
3.07582e-05
3.11319e-05
3.14239e-05
3.16487e-05
3.18131e-05
3.19196e-05
3.19699e-05
3.19649e-05
3.1905e-05
3.17896e-05
3.16179e-05
3.13879e-05
3.1093e-05
3.07205e-05
3.02486e-05
2.96567e-05
2.89468e-05
2.80901e-05
2.7411e-05
2.87906e-05
3.45253e-05
0.000101083
9.78841e-05
2.13813e-05
2.81519e-05
3.0608e-05
3.24014e-05
3.35837e-05
3.43347e-05
3.47855e-05
3.50361e-05
3.51877e-05
3.52908e-05
3.53644e-05
3.54132e-05
3.54426e-05
3.54563e-05
3.54559e-05
3.54411e-05
3.54101e-05
3.53588e-05
3.5282e-05
3.51755e-05
3.50198e-05
3.4766e-05
3.43148e-05
3.35624e-05
3.23753e-05
3.05731e-05
2.80922e-05
2.13185e-05
9.77318e-05
0.000257994
0.00012899
0.00010727
9.57109e-05
9.03443e-05
8.69924e-05
8.44184e-05
8.21495e-05
8.02519e-05
7.87084e-05
7.74702e-05
7.64934e-05
7.57318e-05
7.52269e-05
7.49805e-05
7.49903e-05
7.52563e-05
7.57801e-05
7.6554e-05
7.75349e-05
7.87834e-05
8.03364e-05
8.22405e-05
8.45104e-05
8.70757e-05
9.04027e-05
9.5719e-05
0.000107193
0.000128801
0.000257578
0.000213127
0.000107982
9.31421e-05
8.49921e-05
8.21405e-05
8.06752e-05
7.97144e-05
7.88715e-05
7.81758e-05
7.7529e-05
7.69919e-05
7.65981e-05
7.63835e-05
7.62454e-05
7.61692e-05
7.61534e-05
7.61975e-05
7.63031e-05
7.64959e-05
7.68885e-05
7.73921e-05
7.79383e-05
7.85911e-05
7.94261e-05
8.04172e-05
8.19648e-05
8.49735e-05
9.3355e-05
0.000108541
0.000214373
7.89859e-05
2.4197e-05
4.16336e-05
4.24288e-05
4.36032e-05
4.37665e-05
4.3307e-05
4.28507e-05
4.23256e-05
4.17911e-05
4.13134e-05
4.09297e-05
4.0653e-05
4.04762e-05
4.03899e-05
4.03893e-05
4.04752e-05
4.06535e-05
4.09349e-05
4.13236e-05
4.18058e-05
4.23516e-05
4.29047e-05
4.34324e-05
4.39365e-05
4.38148e-05
4.26978e-05
4.19322e-05
2.46882e-05
7.95106e-05
9.06293e-05
5.15698e-05
4.1156e-05
3.27871e-05
3.00417e-05
2.96046e-05
2.95826e-05
2.94194e-05
2.92139e-05
2.90033e-05
2.88078e-05
2.86398e-05
2.8512e-05
2.84332e-05
2.84024e-05
2.84177e-05
2.84799e-05
2.85909e-05
2.87479e-05
2.89374e-05
2.91583e-05
2.93881e-05
2.95908e-05
2.97078e-05
2.96566e-05
3.00195e-05
3.27514e-05
4.13034e-05
5.22326e-05
9.09386e-05
8.61734e-05
5.0122e-05
3.6199e-05
2.80242e-05
2.45775e-05
2.4136e-05
2.45983e-05
2.51277e-05
2.55396e-05
2.58718e-05
2.6106e-05
2.62597e-05
2.6357e-05
2.64188e-05
2.64573e-05
2.64781e-05
2.64807e-05
2.64589e-05
2.63977e-05
2.62723e-05
2.60541e-05
2.57095e-05
2.52387e-05
2.46201e-05
2.40451e-05
2.43775e-05
2.78554e-05
3.62918e-05
5.06214e-05
8.62321e-05
8.42662e-05
4.58198e-05
3.234e-05
2.5688e-05
2.36033e-05
2.358e-05
2.42747e-05
2.50379e-05
2.56622e-05
2.6142e-05
2.64931e-05
2.67385e-05
2.69016e-05
2.70039e-05
2.70598e-05
2.70765e-05
2.70529e-05
2.69802e-05
2.68412e-05
2.66101e-05
2.62553e-05
2.5743e-05
2.50518e-05
2.42028e-05
2.34417e-05
2.34209e-05
2.55636e-05
3.24063e-05
4.61417e-05
8.41468e-05
8.29739e-05
4.23808e-05
3.01498e-05
2.50013e-05
2.39576e-05
2.43299e-05
2.50457e-05
2.57679e-05
2.63825e-05
2.68658e-05
2.72267e-05
2.74839e-05
2.76583e-05
2.77678e-05
2.78254e-05
2.78372e-05
2.7802e-05
2.77113e-05
2.7549e-05
2.72927e-05
2.6916e-05
2.63967e-05
2.57295e-05
2.49501e-05
2.41971e-05
2.38495e-05
2.49764e-05
3.0242e-05
4.25772e-05
8.27851e-05
8.1842e-05
4.008e-05
2.85977e-05
2.49298e-05
2.46835e-05
2.52329e-05
2.59149e-05
2.65532e-05
2.70952e-05
2.75267e-05
2.78534e-05
2.80895e-05
2.82509e-05
2.83523e-05
2.84043e-05
2.84118e-05
2.83736e-05
2.82824e-05
2.81247e-05
2.78831e-05
2.75391e-05
2.70792e-05
2.65039e-05
2.58396e-05
2.51565e-05
2.46506e-05
2.4985e-05
2.87257e-05
4.01431e-05
8.16994e-05
8.08112e-05
3.87643e-05
2.76177e-05
2.50874e-05
2.53376e-05
2.60033e-05
2.66537e-05
2.7217e-05
2.76806e-05
2.80461e-05
2.83224e-05
2.85222e-05
2.8659e-05
2.87446e-05
2.87876e-05
2.87918e-05
2.87563e-05
2.86751e-05
2.85378e-05
2.83309e-05
2.8041e-05
2.7658e-05
2.71794e-05
2.66132e-05
2.59829e-05
2.53694e-05
2.51883e-05
2.77335e-05
3.87942e-05
8.06912e-05
8.02131e-05
3.78889e-05
2.71006e-05
2.53729e-05
2.58802e-05
2.66049e-05
2.72303e-05
2.77333e-05
2.81273e-05
2.84281e-05
2.8651e-05
2.881e-05
2.89178e-05
2.89846e-05
2.90174e-05
2.90195e-05
2.899e-05
2.89245e-05
2.88147e-05
2.865e-05
2.8419e-05
2.81105e-05
2.77144e-05
2.72211e-05
2.66227e-05
2.59423e-05
2.54802e-05
2.71924e-05
3.79002e-05
8.00713e-05
7.97095e-05
3.72836e-05
2.68274e-05
2.56393e-05
2.62987e-05
2.70532e-05
2.76576e-05
2.81136e-05
2.84504e-05
2.86949e-05
2.88688e-05
2.8989e-05
2.90686e-05
2.9117e-05
2.91402e-05
2.9141e-05
2.9119e-05
2.90706e-05
2.89892e-05
2.88657e-05
2.86884e-05
2.8443e-05
2.81111e-05
2.76691e-05
2.70892e-05
2.63665e-05
2.57319e-05
2.6894e-05
3.72834e-05
7.95948e-05
7.92665e-05
3.68614e-05
2.66897e-05
2.58555e-05
2.66043e-05
2.7375e-05
2.79616e-05
2.83812e-05
2.86732e-05
2.88723e-05
2.90055e-05
2.90928e-05
2.9148e-05
2.91804e-05
2.91956e-05
2.91958e-05
2.9181e-05
2.91483e-05
2.90922e-05
2.90038e-05
2.88705e-05
2.86741e-05
2.83896e-05
2.79832e-05
2.74152e-05
2.66644e-05
2.59262e-05
2.67335e-05
3.68552e-05
7.91765e-05
7.88931e-05
3.65705e-05
2.66287e-05
2.60257e-05
2.68243e-05
2.75998e-05
2.81703e-05
2.85618e-05
2.88198e-05
2.89844e-05
2.90865e-05
2.91482e-05
2.91844e-05
2.92044e-05
2.92133e-05
2.92134e-05
2.92046e-05
2.91847e-05
2.91485e-05
2.90873e-05
2.8987e-05
2.88266e-05
2.85759e-05
2.81949e-05
2.76368e-05
2.6872e-05
2.60751e-05
2.66546e-05
3.65613e-05
7.88212e-05
7.86009e-05
3.63773e-05
2.66085e-05
2.61541e-05
2.69781e-05
2.77512e-05
2.83073e-05
2.86777e-05
2.89113e-05
2.90514e-05
2.91315e-05
2.91751e-05
2.91978e-05
2.92088e-05
2.92134e-05
2.92135e-05
2.92093e-05
2.91986e-05
2.91766e-05
2.91345e-05
2.90571e-05
2.89214e-05
2.86941e-05
2.83314e-05
2.77828e-05
2.70143e-05
2.61869e-05
2.66221e-05
3.63667e-05
7.85411e-05
7.84003e-05
3.62598e-05
2.6607e-05
2.62417e-05
2.70768e-05
2.78449e-05
2.839e-05
2.87459e-05
2.89636e-05
2.90881e-05
2.91542e-05
2.91865e-05
2.92007e-05
2.92063e-05
2.92081e-05
2.92083e-05
2.9207e-05
2.92021e-05
2.91891e-05
2.91587e-05
2.90956e-05
2.89752e-05
2.87628e-05
2.84125e-05
2.78718e-05
2.71048e-05
2.62642e-05
2.66132e-05
3.62483e-05
7.83476e-05
7.82985e-05
3.6205e-05
2.66098e-05
2.62863e-05
2.71254e-05
2.789e-05
2.8429e-05
2.87774e-05
2.89872e-05
2.91041e-05
2.91635e-05
2.91903e-05
2.92005e-05
2.92034e-05
2.9204e-05
2.92043e-05
2.92043e-05
2.92022e-05
2.91933e-05
2.91686e-05
2.91122e-05
2.89992e-05
2.87941e-05
2.84501e-05
2.79143e-05
2.71495e-05
2.63042e-05
2.66128e-05
3.61925e-05
7.82488e-05
7.82994e-05
3.6205e-05
2.66102e-05
2.62869e-05
2.7126e-05
2.78904e-05
2.84291e-05
2.87774e-05
2.8987e-05
2.91039e-05
2.91633e-05
2.91901e-05
2.92003e-05
2.92033e-05
2.92039e-05
2.9204e-05
2.9204e-05
2.92018e-05
2.91929e-05
2.91681e-05
2.91117e-05
2.89987e-05
2.87937e-05
2.845e-05
2.79145e-05
2.71501e-05
2.63053e-05
2.66139e-05
3.61928e-05
7.82488e-05
7.84028e-05
3.62598e-05
2.66081e-05
2.62438e-05
2.70787e-05
2.78462e-05
2.83905e-05
2.87459e-05
2.89632e-05
2.90876e-05
2.91537e-05
2.9186e-05
2.92003e-05
2.92059e-05
2.92077e-05
2.92078e-05
2.92062e-05
2.92011e-05
2.91878e-05
2.91573e-05
2.9094e-05
2.89738e-05
2.87616e-05
2.84118e-05
2.78722e-05
2.71066e-05
2.62674e-05
2.66164e-05
3.62493e-05
7.83477e-05
7.86046e-05
3.63774e-05
2.66111e-05
2.61584e-05
2.69818e-05
2.77534e-05
2.83082e-05
2.86775e-05
2.89106e-05
2.90505e-05
2.91307e-05
2.91745e-05
2.91974e-05
2.92086e-05
2.92131e-05
2.9213e-05
2.92084e-05
2.91973e-05
2.91748e-05
2.91323e-05
2.90547e-05
2.89189e-05
2.86919e-05
2.83301e-05
2.77829e-05
2.70167e-05
2.61919e-05
2.66271e-05
3.63684e-05
7.85421e-05
7.88973e-05
3.65712e-05
2.66335e-05
2.60331e-05
2.68301e-05
2.7603e-05
2.81713e-05
2.85613e-05
2.88187e-05
2.89833e-05
2.90858e-05
2.91481e-05
2.91847e-05
2.92048e-05
2.92137e-05
2.92135e-05
2.92042e-05
2.91835e-05
2.91466e-05
2.90847e-05
2.89839e-05
2.88232e-05
2.85727e-05
2.81926e-05
2.76363e-05
2.68744e-05
2.60809e-05
2.66612e-05
3.6564e-05
7.8824e-05
7.92704e-05
3.68631e-05
2.6698e-05
2.58667e-05
2.66123e-05
2.73788e-05
2.79622e-05
2.838e-05
2.86716e-05
2.88712e-05
2.90054e-05
2.90937e-05
2.91496e-05
2.91824e-05
2.91975e-05
2.91973e-05
2.91817e-05
2.91481e-05
2.90908e-05
2.90014e-05
2.88671e-05
2.86701e-05
2.83854e-05
2.79796e-05
2.74133e-05
2.66657e-05
2.59317e-05
2.67411e-05
3.68592e-05
7.91825e-05
7.97115e-05
3.72873e-05
2.68402e-05
2.56545e-05
2.63081e-05
2.70564e-05
2.76566e-05
2.81111e-05
2.84482e-05
2.86943e-05
2.887e-05
2.89919e-05
2.90726e-05
2.91215e-05
2.91446e-05
2.91448e-05
2.91218e-05
2.9072e-05
2.89892e-05
2.88642e-05
2.86855e-05
2.84388e-05
2.81061e-05
2.76641e-05
2.70854e-05
2.63656e-05
2.57357e-05
2.69021e-05
3.72896e-05
7.96054e-05
8.02119e-05
3.78959e-05
2.71188e-05
2.53911e-05
2.58887e-05
2.6605e-05
2.72262e-05
2.77289e-05
2.8125e-05
2.84289e-05
2.86548e-05
2.88162e-05
2.89255e-05
2.89929e-05
2.90254e-05
2.90266e-05
2.89959e-05
2.89286e-05
2.88169e-05
2.86504e-05
2.84174e-05
2.8107e-05
2.77094e-05
2.72152e-05
2.66169e-05
2.59384e-05
2.5481e-05
2.72004e-05
3.79094e-05
8.00881e-05
8.08066e-05
3.87768e-05
2.76422e-05
2.51053e-05
2.53407e-05
2.59968e-05
2.66449e-05
2.72107e-05
2.76793e-05
2.80502e-05
2.83309e-05
2.85337e-05
2.8672e-05
2.8758e-05
2.88003e-05
2.88032e-05
2.8766e-05
2.86827e-05
2.85432e-05
2.8334e-05
2.80418e-05
2.76564e-05
2.71756e-05
2.66076e-05
2.59762e-05
2.53633e-05
2.51866e-05
2.77421e-05
3.88087e-05
8.07082e-05
8.18355e-05
4.01047e-05
2.86278e-05
2.49394e-05
2.46744e-05
2.52167e-05
2.59013e-05
2.65472e-05
2.70979e-05
2.75371e-05
2.78691e-05
2.8108e-05
2.82705e-05
2.83717e-05
2.84225e-05
2.84281e-05
2.83877e-05
2.82939e-05
2.81338e-05
2.78897e-05
2.75431e-05
2.70807e-05
2.65029e-05
2.58361e-05
2.51509e-05
2.46443e-05
2.4983e-05
2.87389e-05
4.01707e-05
8.17259e-05
8.29769e-05
4.2455e-05
3.01747e-05
2.49965e-05
2.39333e-05
2.4305e-05
2.50311e-05
2.5767e-05
2.63941e-05
2.68865e-05
2.72523e-05
2.75113e-05
2.76854e-05
2.77936e-05
2.78492e-05
2.78584e-05
2.78203e-05
2.77267e-05
2.75618e-05
2.7303e-05
2.69238e-05
2.64021e-05
2.57325e-05
2.49508e-05
2.41958e-05
2.38466e-05
2.49768e-05
3.02581e-05
4.26567e-05
8.2848e-05
8.42889e-05
4.59158e-05
3.23623e-05
2.56701e-05
2.35707e-05
2.35572e-05
2.4268e-05
2.50499e-05
2.56893e-05
2.61771e-05
2.65305e-05
2.67749e-05
2.69357e-05
2.70352e-05
2.70882e-05
2.71015e-05
2.70745e-05
2.69986e-05
2.68568e-05
2.66232e-05
2.62663e-05
2.5752e-05
2.50591e-05
2.4209e-05
2.34457e-05
2.34254e-05
2.55748e-05
3.24279e-05
4.6225e-05
8.42311e-05
8.62327e-05
5.02507e-05
3.62467e-05
2.80055e-05
2.45476e-05
2.41255e-05
2.46107e-05
2.51583e-05
2.55846e-05
2.59204e-05
2.61526e-05
2.63027e-05
2.63954e-05
2.64525e-05
2.6487e-05
2.65042e-05
2.65037e-05
2.64789e-05
2.64146e-05
2.62869e-05
2.60668e-05
2.57208e-05
2.52483e-05
2.46299e-05
2.40559e-05
2.43926e-05
2.78819e-05
3.63526e-05
5.07104e-05
8.63354e-05
9.07384e-05
5.17218e-05
4.12079e-05
3.27899e-05
3.00447e-05
2.96209e-05
2.96172e-05
2.9459e-05
2.92524e-05
2.90377e-05
2.88379e-05
2.86677e-05
2.85356e-05
2.84527e-05
2.84189e-05
2.84324e-05
2.84933e-05
2.86029e-05
2.8757e-05
2.89453e-05
2.91659e-05
2.93967e-05
2.96026e-05
2.97212e-05
2.9671e-05
3.00366e-05
3.27727e-05
4.13489e-05
5.22885e-05
9.10442e-05
7.91216e-05
2.42976e-05
4.17048e-05
4.24998e-05
4.3667e-05
4.38207e-05
4.33471e-05
4.28639e-05
4.23299e-05
4.17917e-05
4.13122e-05
4.09266e-05
4.06485e-05
4.04713e-05
4.03852e-05
4.03853e-05
4.04721e-05
4.06516e-05
4.09343e-05
4.13246e-05
4.18095e-05
4.236e-05
4.2923e-05
4.34862e-05
4.40033e-05
4.3885e-05
4.27589e-05
4.19775e-05
2.47198e-05
7.95928e-05
0.000213418
0.000108111
9.31991e-05
8.50024e-05
8.21189e-05
8.06345e-05
7.96638e-05
7.88188e-05
7.81292e-05
7.74983e-05
7.69658e-05
7.65682e-05
7.6357e-05
7.62227e-05
7.61501e-05
7.61377e-05
7.61851e-05
7.62943e-05
7.64906e-05
7.68864e-05
7.73947e-05
7.79534e-05
7.86158e-05
7.94637e-05
8.04676e-05
8.20249e-05
8.50397e-05
9.34286e-05
0.000108631
0.00021454
0.000184855
9.29939e-05
8.27413e-05
7.74466e-05
7.63294e-05
7.59325e-05
7.55499e-05
7.49404e-05
7.43493e-05
7.39333e-05
7.36118e-05
7.335e-05
7.31235e-05
7.2979e-05
7.29185e-05
7.29406e-05
7.30455e-05
7.32344e-05
7.34996e-05
7.37879e-05
7.41519e-05
7.46667e-05
7.52977e-05
7.59041e-05
7.62395e-05
7.65372e-05
7.74878e-05
8.25221e-05
9.23905e-05
0.000183345
6.93733e-05
2.89927e-05
5.04144e-05
5.35793e-05
5.67079e-05
5.91976e-05
6.07263e-05
6.10524e-05
6.05554e-05
5.96768e-05
5.87313e-05
5.78811e-05
5.72077e-05
5.67526e-05
5.65314e-05
5.65474e-05
5.67985e-05
5.7276e-05
5.7958e-05
5.88007e-05
5.97296e-05
6.05827e-05
6.10413e-05
6.06146e-05
5.89888e-05
5.6419e-05
5.32235e-05
4.99557e-05
2.83501e-05
6.87357e-05
8.08483e-05
5.48332e-05
5.02196e-05
4.47097e-05
4.0432e-05
3.80214e-05
3.65881e-05
3.56683e-05
3.49213e-05
3.42062e-05
3.35719e-05
3.30587e-05
3.26793e-05
3.24316e-05
3.23115e-05
3.23155e-05
3.24429e-05
3.26962e-05
3.30799e-05
3.35993e-05
3.4233e-05
3.49439e-05
3.56825e-05
3.65442e-05
3.80586e-05
4.05613e-05
4.48266e-05
5.00653e-05
5.41392e-05
8.04466e-05
7.82244e-05
5.85101e-05
4.83777e-05
3.72746e-05
3.0795e-05
2.74684e-05
2.61818e-05
2.57133e-05
2.5453e-05
2.51563e-05
2.49187e-05
2.47518e-05
2.46433e-05
2.45773e-05
2.45417e-05
2.45295e-05
2.45416e-05
2.45847e-05
2.46724e-05
2.48263e-05
2.50669e-05
2.53997e-05
2.57499e-05
2.63026e-05
2.77772e-05
3.1237e-05
3.75529e-05
4.81632e-05
5.76601e-05
7.80433e-05
7.72862e-05
5.71526e-05
4.33664e-05
3.18473e-05
2.59411e-05
2.36952e-05
2.27669e-05
2.2471e-05
2.24154e-05
2.24178e-05
2.24385e-05
2.24715e-05
2.25098e-05
2.25408e-05
2.25556e-05
2.25428e-05
2.25089e-05
2.24624e-05
2.24144e-05
2.23832e-05
2.23894e-05
2.2448e-05
2.25964e-05
2.29889e-05
2.3961e-05
2.63529e-05
3.20735e-05
4.31495e-05
5.66487e-05
7.73823e-05
7.66909e-05
5.60255e-05
3.81927e-05
2.80695e-05
2.39325e-05
2.24258e-05
2.21544e-05
2.22023e-05
2.23348e-05
2.24687e-05
2.25824e-05
2.26765e-05
2.27515e-05
2.28034e-05
2.28263e-05
2.28163e-05
2.27764e-05
2.27142e-05
2.2639e-05
2.25615e-05
2.24893e-05
2.24243e-05
2.23803e-05
2.24178e-05
2.27382e-05
2.41366e-05
2.81275e-05
3.80207e-05
5.57727e-05
7.69089e-05
7.6138e-05
5.42929e-05
3.44239e-05
2.58434e-05
2.27358e-05
2.21153e-05
2.22926e-05
2.25958e-05
2.2863e-05
2.30698e-05
2.32239e-05
2.3337e-05
2.34176e-05
2.34691e-05
2.34919e-05
2.3486e-05
2.34539e-05
2.33996e-05
2.33269e-05
2.32365e-05
2.31224e-05
2.29699e-05
2.27613e-05
2.25051e-05
2.23325e-05
2.28705e-05
2.58665e-05
3.44083e-05
5.42297e-05
7.63366e-05
7.56534e-05
5.20964e-05
3.20091e-05
2.44708e-05
2.21355e-05
2.20968e-05
2.25657e-05
2.30349e-05
2.33992e-05
2.36605e-05
2.38414e-05
2.3964e-05
2.40444e-05
2.40927e-05
2.41141e-05
2.41114e-05
2.40865e-05
2.40402e-05
2.39699e-05
2.38675e-05
2.37165e-05
2.349e-05
2.31556e-05
2.26975e-05
2.22043e-05
2.2178e-05
2.44359e-05
3.20144e-05
5.20751e-05
7.5832e-05
7.5061e-05
4.98982e-05
3.03754e-05
2.35771e-05
2.18976e-05
2.22121e-05
2.2844e-05
2.34048e-05
2.38282e-05
2.41253e-05
2.43245e-05
2.44531e-05
2.45327e-05
2.45779e-05
2.45979e-05
2.45971e-05
2.4577e-05
2.45353e-05
2.44645e-05
2.43503e-05
2.41695e-05
2.38899e-05
2.34758e-05
2.29071e-05
2.22431e-05
2.18808e-05
2.3518e-05
3.03812e-05
4.9912e-05
7.52405e-05
7.45558e-05
4.79495e-05
2.92748e-05
2.31308e-05
2.19535e-05
2.24219e-05
2.31124e-05
2.37076e-05
2.41548e-05
2.44671e-05
2.46735e-05
2.48032e-05
2.48804e-05
2.49225e-05
2.49408e-05
2.49409e-05
2.49237e-05
2.48848e-05
2.48136e-05
2.46923e-05
2.44947e-05
2.41881e-05
2.37383e-05
2.31272e-05
2.24047e-05
2.18959e-05
2.30635e-05
2.92654e-05
4.79928e-05
7.4709e-05
7.41544e-05
4.63464e-05
2.85159e-05
2.29286e-05
2.21215e-05
2.26607e-05
2.33605e-05
2.39544e-05
2.43999e-05
2.47103e-05
2.49138e-05
2.50396e-05
2.51124e-05
2.51508e-05
2.51671e-05
2.51674e-05
2.51522e-05
2.51158e-05
2.50462e-05
2.49241e-05
2.4723e-05
2.44114e-05
2.39583e-05
2.33483e-05
2.26245e-05
2.20614e-05
2.2875e-05
2.8515e-05
4.64111e-05
7.42839e-05
7.385e-05
4.5112e-05
2.80074e-05
2.28488e-05
2.23042e-05
2.28823e-05
2.35731e-05
2.415e-05
2.45804e-05
2.48789e-05
2.50731e-05
2.51914e-05
2.52583e-05
2.52927e-05
2.53068e-05
2.5307e-05
2.52934e-05
2.52599e-05
2.51938e-05
2.50759e-05
2.48805e-05
2.45777e-05
2.41389e-05
2.35491e-05
2.28432e-05
2.22552e-05
2.28147e-05
2.80173e-05
4.51856e-05
7.3961e-05
7.36314e-05
4.42251e-05
2.76795e-05
2.28251e-05
2.24593e-05
2.3061e-05
2.3739e-05
2.42959e-05
2.47078e-05
2.49913e-05
2.5174e-05
2.52838e-05
2.53447e-05
2.53751e-05
2.53873e-05
2.53873e-05
2.5375e-05
2.53444e-05
2.52828e-05
2.51715e-05
2.49858e-05
2.4697e-05
2.42776e-05
2.37113e-05
2.3025e-05
2.2422e-05
2.28067e-05
2.76963e-05
4.43003e-05
7.37287e-05
7.34899e-05
4.36583e-05
2.74857e-05
2.28225e-05
2.25684e-05
2.31843e-05
2.38519e-05
2.43928e-05
2.47893e-05
2.506e-05
2.5233e-05
2.53356e-05
2.53917e-05
2.5419e-05
2.54296e-05
2.54294e-05
2.54182e-05
2.539e-05
2.53325e-05
2.52274e-05
2.50507e-05
2.47746e-05
2.43716e-05
2.3824e-05
2.31521e-05
2.2539e-05
2.28125e-05
2.75046e-05
4.37279e-05
7.35772e-05
7.34208e-05
4.33976e-05
2.73986e-05
2.28252e-05
2.26239e-05
2.32468e-05
2.39089e-05
2.44412e-05
2.48292e-05
2.50929e-05
2.52603e-05
2.53589e-05
2.54122e-05
2.54378e-05
2.54476e-05
2.54473e-05
2.54368e-05
2.541e-05
2.53549e-05
2.52535e-05
2.50822e-05
2.48134e-05
2.44195e-05
2.38816e-05
2.32168e-05
2.2598e-05
2.28176e-05
2.74141e-05
4.3445e-05
7.35013e-05
7.34177e-05
4.33957e-05
2.73976e-05
2.28243e-05
2.26232e-05
2.32464e-05
2.39089e-05
2.44416e-05
2.48298e-05
2.50935e-05
2.52608e-05
2.53594e-05
2.54126e-05
2.54382e-05
2.5448e-05
2.54478e-05
2.54374e-05
2.54108e-05
2.53559e-05
2.52547e-05
2.50835e-05
2.48147e-05
2.44206e-05
2.38824e-05
2.32167e-05
2.2597e-05
2.28156e-05
2.74116e-05
4.34387e-05
7.34988e-05
7.34803e-05
4.36446e-05
2.74816e-05
2.28192e-05
2.25658e-05
2.31831e-05
2.38521e-05
2.4394e-05
2.4791e-05
2.50619e-05
2.52347e-05
2.53371e-05
2.53928e-05
2.54199e-05
2.54306e-05
2.54306e-05
2.54198e-05
2.53922e-05
2.53353e-05
2.52308e-05
2.50546e-05
2.47786e-05
2.43752e-05
2.38264e-05
2.31523e-05
2.25362e-05
2.28067e-05
2.74972e-05
4.37092e-05
7.35693e-05
7.36157e-05
4.42014e-05
2.76719e-05
2.28186e-05
2.24544e-05
2.30589e-05
2.37394e-05
2.42981e-05
2.47108e-05
2.49944e-05
2.51767e-05
2.52859e-05
2.53462e-05
2.53762e-05
2.53884e-05
2.53887e-05
2.53772e-05
2.53476e-05
2.52873e-05
2.51771e-05
2.49922e-05
2.47039e-05
2.42839e-05
2.37159e-05
2.30263e-05
2.24183e-05
2.27978e-05
2.76844e-05
4.42689e-05
7.37141e-05
7.38294e-05
4.50788e-05
2.79958e-05
2.28381e-05
2.22966e-05
2.28793e-05
2.35742e-05
2.41536e-05
2.45849e-05
2.48832e-05
2.50765e-05
2.51936e-05
2.52595e-05
2.52932e-05
2.53074e-05
2.53081e-05
2.52956e-05
2.52636e-05
2.51994e-05
2.50832e-05
2.48893e-05
2.45874e-05
2.41483e-05
2.35566e-05
2.28466e-05
2.22522e-05
2.28039e-05
2.80014e-05
4.51416e-05
7.39388e-05
7.41302e-05
4.6303e-05
2.84999e-05
2.29134e-05
2.21112e-05
2.26577e-05
2.33632e-05
2.39602e-05
2.44063e-05
2.47157e-05
2.49174e-05
2.50412e-05
2.51123e-05
2.51498e-05
2.51661e-05
2.51672e-05
2.51535e-05
2.51193e-05
2.50522e-05
2.49325e-05
2.47337e-05
2.44236e-05
2.39709e-05
2.33594e-05
2.26312e-05
2.20606e-05
2.28643e-05
2.84955e-05
4.63536e-05
7.42525e-05
7.45297e-05
4.78947e-05
2.92572e-05
2.31126e-05
2.19423e-05
2.24211e-05
2.31188e-05
2.37168e-05
2.41636e-05
2.44733e-05
2.46764e-05
2.4803e-05
2.48778e-05
2.49187e-05
2.49369e-05
2.49381e-05
2.4923e-05
2.48869e-05
2.4819e-05
2.47009e-05
2.45064e-05
2.42021e-05
2.37535e-05
2.31417e-05
2.24153e-05
2.18987e-05
2.30555e-05
2.92439e-05
4.79205e-05
7.46659e-05
7.50351e-05
4.98336e-05
3.03659e-05
2.35597e-05
2.1892e-05
2.22178e-05
2.28568e-05
2.34188e-05
2.38394e-05
2.41315e-05
2.43253e-05
2.44493e-05
2.45257e-05
2.45694e-05
2.45894e-05
2.45902e-05
2.45729e-05
2.45347e-05