/*--------------------------------*- C++ -*----------------------------------*\
| =========                 |                                                 |
| \\      /  F ield         | OpenFOAM: The Open Source CFD Toolbox           |
|  \\    /   O peration     | Version:  2312                                  |
|   \\  /    A nd           | Website:  www.openfoam.com                      |
|    \\/     M anipulation  |                                                 |
\*---------------------------------------------------------------------------*/
FoamFile
{
    version     2.0;
    format      ascii;
    arch        "LSB;label=32;scalar=64";
    class       volScalarField;
    location    "700";
    object      nut;
}
// * * * * * * * * * * * * * * * * * * * * * * * * * * * * * * * * * * * * * //

dimensions      [0 2 -1 0 0 0 0];

internalField   nonuniform List<scalar> 
27000
(
3.94404e-06
6.69493e-06
9.35783e-06
1.17471e-05
1.40701e-05
1.62372e-05
1.8203e-05
1.98623e-05
2.12887e-05
2.2507e-05
2.3519e-05
2.4324e-05
2.49192e-05
2.53146e-05
2.5513e-05
2.55152e-05
2.53212e-05
2.49298e-05
2.43366e-05
2.35323e-05
2.25218e-05
2.13044e-05
1.98781e-05
1.82177e-05
1.62492e-05
1.40779e-05
1.17495e-05
9.35514e-06
6.68991e-06
3.94065e-06
5.74125e-06
1.27418e-06
5.15605e-06
9.0736e-06
1.31452e-05
1.7013e-05
2.06623e-05
2.40523e-05
2.71202e-05
2.98408e-05
3.21836e-05
3.41212e-05
3.56266e-05
3.66533e-05
3.71702e-05
3.71636e-05
3.66344e-05
3.55984e-05
3.40904e-05
3.21575e-05
2.98162e-05
2.70972e-05
2.40333e-05
2.06492e-05
1.70037e-05
1.3139e-05
9.07126e-06
5.15266e-06
1.27119e-06
5.73673e-06
9.21767e-06
7.1052e-06
1.46303e-05
2.62715e-05
3.69265e-05
4.62773e-05
5.48145e-05
6.27784e-05
6.99868e-05
7.63119e-05
8.16816e-05
8.60616e-05
8.942e-05
9.16935e-05
9.28325e-05
9.28145e-05
9.16441e-05
8.93532e-05
8.60028e-05
8.16578e-05
7.6317e-05
7.00175e-05
6.283e-05
5.48807e-05
4.63329e-05
3.69666e-05
2.63302e-05
1.4678e-05
7.09094e-06
9.21423e-06
1.21558e-05
1.08345e-05
2.63123e-05
5.29488e-05
7.834e-05
9.64147e-05
0.000109981
0.000121058
0.000130297
0.000137897
0.000144082
0.000148949
0.000152576
0.000154988
0.000156188
0.000156179
0.000154967
0.000152563
0.000148972
0.000144159
0.000138025
0.000130455
0.000121223
0.000110105
9.64688e-05
7.83787e-05
5.30716e-05
2.64161e-05
1.08305e-05
1.21566e-05
1.49315e-05
1.44771e-05
3.71732e-05
7.66536e-05
0.000113516
0.000139256
0.000156128
0.000168036
0.000176853
0.000183182
0.000188124
0.000191873
0.000194588
0.00019636
0.000197236
0.000197239
0.000196374
0.000194627
0.000191951
0.000188245
0.000183328
0.000176965
0.00016815
0.000156205
0.000139282
0.000113572
7.68191e-05
3.72889e-05
1.4475e-05
1.49375e-05
1.75007e-05
1.84148e-05
4.80141e-05
9.58151e-05
0.000138308
0.000167679
0.000185642
0.00019699
0.00020447
0.000209477
0.000212952
0.000215399
0.000217084
0.000218149
0.000218667
0.000218673
0.000218168
0.000217126
0.000215471
0.000213053
0.000209592
0.000204578
0.000197093
0.000185756
0.000167819
0.000138456
9.60165e-05
4.81262e-05
1.84101e-05
1.75107e-05
1.98387e-05
2.25419e-05
5.88048e-05
0.000112051
0.000156286
0.000185531
0.00020313
0.00021342
0.000219514
0.000223188
0.000225453
0.000226877
0.000227773
0.000228304
0.000228553
0.000228557
0.000228317
0.000227802
0.000226928
0.000225523
0.000223271
0.000219599
0.000213506
0.000203232
0.000185674
0.00015646
0.000112236
5.88661e-05
2.25279e-05
1.98513e-05
2.19308e-05
2.67217e-05
6.92574e-05
0.000126002
0.000170265
0.000197712
0.000213646
0.000222475
0.000227262
0.000229828
0.000231191
0.00023191
0.000232285
0.000232473
0.000232552
0.000232554
0.000232481
0.000232304
0.000231944
0.00023124
0.000229889
0.00022733
0.000222549
0.000213735
0.000197824
0.000170374
0.000126123
6.92787e-05
2.67021e-05
2.19448e-05
2.37444e-05
3.08333e-05
7.90172e-05
0.0001379
0.000181187
0.000206316
0.000220211
0.000227482
0.000231104
0.000232805
0.000233537
0.000233804
0.000233867
0.00023386
0.000233844
0.000233846
0.000233865
0.00023388
0.000233826
0.000233571
0.000232849
0.000231155
0.000227539
0.000220273
0.000206375
0.0001812
0.000137941
7.89872e-05
3.08016e-05
2.37622e-05
2.52952e-05
3.47183e-05
8.78782e-05
0.000147875
0.000188983
0.000212268
0.000224367
0.000230272
0.00023294
0.000234001
0.000234312
0.000234309
0.000234205
0.000234101
0.000234041
0.000234041
0.000234104
0.000234212
0.000234323
0.000234333
0.000234027
0.00023297
0.000230304
0.000224399
0.000212295
0.000188994
0.000147851
8.78009e-05
3.46785e-05
2.53125e-05
2.65862e-05
3.82189e-05
9.5623e-05
0.000156222
0.000195404
0.000216608
0.000227084
0.000231853
0.000233783
0.000234389
0.000234435
0.000234285
0.000234103
0.000233962
0.000233887
0.000233887
0.000233962
0.000234106
0.00023429
0.000234443
0.000234398
0.00023379
0.000231857
0.000227083
0.000216598
0.00019537
0.000156141
9.55126e-05
3.81751e-05
2.66021e-05
2.76178e-05
4.11987e-05
0.000102041
0.000162895
0.000200396
0.000219794
0.000228906
0.000232773
0.000234153
0.00023445
0.000234335
0.000234112
0.000233904
0.000233757
0.000233682
0.000233681
0.000233755
0.000233902
0.000234108
0.00023433
0.000234441
0.000234139
0.000232751
0.000228874
0.000219747
0.00020032
0.000162774
0.00010191
4.11528e-05
2.76325e-05
2.83909e-05
4.35418e-05
0.000106979
0.000167909
0.000204041
0.000222035
0.000230112
0.000233315
0.00023431
0.000234404
0.000234197
0.000233943
0.000233734
0.000233595
0.000233525
0.000233524
0.00023359
0.000233727
0.000233932
0.000234181
0.000234381
0.000234278
0.000233273
0.000230056
0.00022196
0.000203935
0.000167761
0.000106838
4.34951e-05
2.84045e-05
2.89059e-05
4.51566e-05
0.000110333
0.000171297
0.00020643
0.000223464
0.000230849
0.000233621
0.000234372
0.000234346
0.000234091
0.000233827
0.000233624
0.000233494
0.000233431
0.000233429
0.000233488
0.000233613
0.00023381
0.000234067
0.000234313
0.000234328
0.000233565
0.000230779
0.000223374
0.000206313
0.000171146
0.000110189
4.511e-05
2.89188e-05
2.91632e-05
4.59797e-05
0.000112025
0.000172992
0.000207611
0.000224158
0.0002312
0.000233758
0.000234393
0.000234311
0.000234036
0.000233769
0.000233572
0.000233448
0.000233389
0.000233386
0.000233441
0.000233559
0.00023375
0.000234008
0.000234274
0.000234344
0.000233697
0.000231123
0.000224063
0.00020749
0.000172844
0.000111882
4.59336e-05
2.91758e-05
2.9163e-05
4.59793e-05
0.000112024
0.00017299
0.000207608
0.000224156
0.000231198
0.000233758
0.000234393
0.000234311
0.000234036
0.000233769
0.000233571
0.000233448
0.000233388
0.000233386
0.000233441
0.00023356
0.000233751
0.00023401
0.000234275
0.000234345
0.000233698
0.000231123
0.000224063
0.00020749
0.000172843
0.000111883
4.59334e-05
2.91756e-05
2.89053e-05
4.51555e-05
0.00011033
0.000171291
0.000206424
0.000223459
0.000230846
0.000233619
0.000234371
0.000234346
0.000234091
0.000233826
0.000233623
0.000233493
0.00023343
0.000233428
0.000233488
0.000233614
0.000233812
0.00023407
0.000234316
0.000234331
0.000233566
0.000230779
0.000223374
0.000206312
0.000171145
0.000110192
4.51095e-05
2.89183e-05
2.839e-05
4.35401e-05
0.000106975
0.0001679
0.000204032
0.000222029
0.000230107
0.000233313
0.000234309
0.000234404
0.000234197
0.000233942
0.000233732
0.000233591
0.000233522
0.000233522
0.000233589
0.000233728
0.000233935
0.000234185
0.000234386
0.000234282
0.000233275
0.000230056
0.00022196
0.000203934
0.00016776
0.000106843
4.34942e-05
2.84036e-05
2.76167e-05
4.11965e-05
0.000102037
0.000162889
0.00020039
0.000219789
0.000228903
0.000232772
0.000234153
0.000234449
0.000234333
0.000234108
0.000233899
0.00023375
0.000233675
0.000233675
0.000233751
0.0002339
0.00023411
0.000234333
0.000234446
0.000234144
0.000232754
0.000228875
0.000219746
0.000200321
0.000162779
0.000101917
4.11516e-05
2.7631e-05
2.6585e-05
3.82165e-05
9.56232e-05
0.000156223
0.000195404
0.000216608
0.000227084
0.000231853
0.000233783
0.000234387
0.000234431
0.000234277
0.000234093
0.000233949
0.000233874
0.000233875
0.000233953
0.0002341
0.000234288
0.000234444
0.000234401
0.000233794
0.00023186
0.000227085
0.000216599
0.000195373
0.000156149
9.55226e-05
3.81739e-05
2.66e-05
2.52942e-05
3.47159e-05
8.78845e-05
0.000147886
0.000188993
0.000212276
0.000224372
0.000230275
0.000232941
0.000233998
0.000234305
0.000234296
0.000234188
0.000234081
0.00023402
0.000234022
0.000234088
0.000234201
0.000234316
0.000234331
0.000234028
0.000232973
0.000230307
0.000224402
0.0002123
0.000189003
0.000147863
8.78138e-05
3.46774e-05
2.53097e-05
2.37437e-05
3.08312e-05
7.9032e-05
0.000137927
0.000181204
0.000206333
0.000220222
0.000227489
0.000231105
0.000232801
0.000233525
0.000233785
0.000233842
0.000233831
0.000233814
0.000233817
0.00023384
0.000233861
0.000233813
0.000233564
0.000232847
0.000231156
0.000227543
0.00022028
0.000206388
0.000181222
0.000137961
7.9003e-05
3.08003e-05
2.37589e-05
2.19303e-05
2.67199e-05
6.92809e-05
0.000126048
0.000170305
0.000197742
0.000213664
0.000222485
0.000227264
0.000229822
0.000231175
0.000231885
0.000232252
0.000232434
0.000232512
0.000232516
0.000232448
0.000232277
0.000231925
0.000231229
0.000229884
0.000227332
0.000222557
0.00021375
0.000197846
0.000170406
0.000126154
6.92985e-05
2.67e-05
2.19415e-05
1.98382e-05
2.25407e-05
5.88373e-05
0.000112116
0.000156344
0.000185573
0.000203155
0.000213433
0.000219518
0.000223181
0.000225435
0.000226848
0.000227733
0.000228257
0.000228505
0.00022851
0.000228276
0.000227769
0.000226904
0.000225509
0.000223267
0.000219606
0.000213524
0.000203261
0.000185717
0.000156507
0.000112282
5.88939e-05
2.25267e-05
1.98477e-05
1.75e-05
1.84156e-05
4.80582e-05
9.58899e-05
0.000138372
0.000167731
0.000185672
0.000197008
0.000204476
0.000209474
0.000212936
0.000215369
0.000217041
0.000218098
0.000218614
0.000218622
0.000218123
0.00021709
0.000215447
0.00021304
0.000209593
0.000204593
0.000197124
0.000185804
0.000167882
0.000138526
9.60795e-05
4.81629e-05
1.8411e-05
1.75069e-05
1.49304e-05
1.44772e-05
3.72155e-05
7.67261e-05
0.000113572
0.000139295
0.000156161
0.000168059
0.000176861
0.000183185
0.000188112
0.000191844
0.000194545
0.000196309
0.000197183
0.000197188
0.000196331
0.000194594
0.000191932
0.000188238
0.000183338
0.00017699
0.000168195
0.000156274
0.000139369
0.000113667
7.68961e-05
3.73245e-05
1.44743e-05
1.49339e-05
1.21542e-05
1.08333e-05
2.63478e-05
5.30091e-05
7.83873e-05
9.64569e-05
0.000110024
0.000121096
0.000130321
0.000137904
0.000144068
0.000148916
0.00015253
0.000154936
0.000156137
0.000156134
0.000154931
0.000152539
0.000148961
0.000144163
0.000138044
0.000130493
0.000121279
0.000110181
9.6559e-05
7.84736e-05
5.31489e-05
2.64457e-05
1.08282e-05
1.21534e-05
9.21574e-06
7.10162e-06
1.46437e-05
2.62964e-05
3.69505e-05
4.63027e-05
5.48355e-05
6.2793e-05
6.99918e-05
7.63061e-05
8.1664e-05
8.60302e-05
8.93826e-05
9.16558e-05
9.27981e-05
9.2786e-05
9.16231e-05
8.93413e-05
8.60025e-05
8.16665e-05
7.6334e-05
7.00431e-05
6.28654e-05
5.49279e-05
4.63836e-05
3.70137e-05
2.63651e-05
1.46881e-05
7.08872e-06
9.21185e-06
5.73967e-06
1.27329e-06
5.15456e-06
9.07261e-06
1.31436e-05
1.70109e-05
2.06589e-05
2.4047e-05
2.71133e-05
2.98327e-05
3.21742e-05
3.41095e-05
3.56143e-05
3.66416e-05
3.71598e-05
3.71549e-05
3.66275e-05
3.55935e-05
3.40872e-05
3.21556e-05
2.98153e-05
2.70973e-05
2.40345e-05
2.06523e-05
1.70067e-05
1.31405e-05
9.07103e-06
5.15078e-06
1.27052e-06
5.73523e-06
3.94311e-06
6.69352e-06
9.35661e-06
1.17467e-05
1.40707e-05
1.62386e-05
1.82049e-05
1.98645e-05
2.12909e-05
2.25093e-05
2.35211e-05
2.43265e-05
2.49215e-05
2.53165e-05
2.55144e-05
2.55161e-05
2.53215e-05
2.49295e-05
2.43358e-05
2.35311e-05
2.25201e-05
2.13023e-05
1.98757e-05
1.8215e-05
1.62464e-05
1.40753e-05
1.17472e-05
9.35318e-06
6.68849e-06
3.93986e-06
3.58473e-06
6.12531e-06
8.71964e-06
1.10693e-05
1.3415e-05
1.56347e-05
1.7686e-05
1.94589e-05
2.10082e-05
2.23353e-05
2.34436e-05
2.43369e-05
2.50221e-05
2.54808e-05
2.57093e-05
2.57066e-05
2.54726e-05
2.50087e-05
2.43213e-05
2.34276e-05
2.23151e-05
2.09754e-05
1.94235e-05
1.76535e-05
1.56095e-05
1.34007e-05
1.10683e-05
8.72996e-06
6.14149e-06
3.59539e-06
5.15805e-06
1.66115e-06
7.54178e-06
1.11601e-05
1.47547e-05
1.7758e-05
2.03031e-05
2.26792e-05
2.47749e-05
2.65897e-05
2.81241e-05
2.93596e-05
3.02789e-05
3.08918e-05
3.12019e-05
3.12086e-05
3.09108e-05
3.03061e-05
2.93866e-05
2.81403e-05
2.66033e-05
2.47931e-05
2.27001e-05
2.03553e-05
1.78208e-05
1.48178e-05
1.12176e-05
7.5791e-06
1.69565e-06
5.17561e-06
8.72528e-06
1.048e-05
1.32261e-05
1.66107e-05
2.17666e-05
2.71965e-05
3.22387e-05
3.66826e-05
4.07704e-05
4.44757e-05
4.76788e-05
5.02179e-05
5.20828e-05
5.33309e-05
5.39737e-05
5.4011e-05
5.34396e-05
5.22493e-05
5.03977e-05
4.77645e-05
4.45314e-05
4.0805e-05
3.66869e-05
3.22049e-05
2.71678e-05
2.17498e-05
1.65853e-05
1.32193e-05
1.05976e-05
8.74071e-06
1.15842e-05
1.3648e-05
1.78032e-05
2.53193e-05
3.5198e-05
4.58412e-05
5.54885e-05
6.40499e-05
7.17022e-05
7.8669e-05
8.45851e-05
8.92852e-05
9.27371e-05
9.50168e-05
9.61854e-05
9.62703e-05
9.52621e-05
9.3113e-05
8.97336e-05
8.50361e-05
7.90799e-05
7.19937e-05
6.41286e-05
5.54162e-05
4.56938e-05
3.49946e-05
2.52125e-05
1.77739e-05
1.37584e-05
1.15886e-05
1.44118e-05
1.60924e-05
2.25224e-05
3.52081e-05
5.32185e-05
7.20865e-05
8.8364e-05
0.000101579
0.000112401
0.000121751
0.000129291
0.000135124
0.000139253
0.000141914
0.000143239
0.000143286
0.000142044
0.00013944
0.000135346
0.000129572
0.000121965
0.000112488
0.000101418
8.79959e-05
7.17494e-05
5.29112e-05
3.49857e-05
2.24294e-05
1.61838e-05
1.44016e-05
1.71105e-05
1.82629e-05
2.82634e-05
4.63508e-05
7.18257e-05
9.81032e-05
0.000120522
0.00013716
0.00014917
0.000158425
0.000165612
0.000171032
0.000174867
0.000177311
0.000178511
0.000178535
0.000177377
0.000174955
0.000171125
0.000165691
0.000158433
0.000149075
0.000136901
0.000120044
9.75577e-05
7.14489e-05
4.61551e-05
2.81522e-05
1.83316e-05
1.70908e-05
1.96239e-05
2.05476e-05
3.37363e-05
5.78714e-05
8.97662e-05
0.000120963
0.00014575
0.000163407
0.000175681
0.000184402
0.000190741
0.000195326
0.000198503
0.000200502
0.000201472
0.000201484
0.000200532
0.000198538
0.00019535
0.00019074
0.000184358
0.000175592
0.000163257
0.000145494
0.000120532
8.94636e-05
5.77974e-05
3.36946e-05
2.05566e-05
1.96064e-05
2.19195e-05
2.30256e-05
3.89111e-05
6.88837e-05
0.000105527
0.000138958
0.000164048
0.000181571
0.000193398
0.000201367
0.000206808
0.000210535
0.000213023
0.000214551
0.000215282
0.000215287
0.000214563
0.000213031
0.000210529
0.000206779
0.000201315
0.000193324
0.000181469
0.000163894
0.000138768
0.00010547
6.89954e-05
3.89013e-05
2.30281e-05
2.19028e-05
2.40228e-05
2.53491e-05
4.38687e-05
7.90965e-05
0.000118999
0.00015282
0.000177331
0.000193999
0.000204932
0.000211998
0.000216563
0.000219518
0.000221397
0.000222512
0.000223032
0.000223033
0.000222512
0.00022139
0.000219498
0.000216526
0.000211946
0.00020487
0.000193928
0.000177255
0.000152789
0.000119143
7.93335e-05
4.3897e-05
2.53633e-05
2.4001e-05
2.58713e-05
2.74408e-05
4.8362e-05
8.78722e-05
0.000130263
0.000163623
0.000187059
0.000202549
0.0002124
0.000218516
0.00022227
0.000224559
0.000225935
0.000226714
0.000227067
0.000227065
0.000226709
0.000225922
0.000224536
0.000222236
0.000218475
0.000212358
0.000202514
0.000187043
0.000163665
0.000130413
8.81562e-05
4.84348e-05
2.74663e-05
2.58521e-05
2.7439e-05
2.92645e-05
5.22773e-05
9.50511e-05
0.000138746
0.000171772
0.000194136
0.000208444
0.000217234
0.000222467
0.000225512
0.000227254
0.000228231
0.000228752
0.000228977
0.000228976
0.000228746
0.00022822
0.000227237
0.000225491
0.000222447
0.000217222
0.000208448
0.000194168
0.000171857
0.000138925
9.5331e-05
5.23709e-05
2.92977e-05
2.7423e-05
2.871e-05
3.07805e-05
5.55256e-05
0.000100741
0.000145163
0.000177766
0.000199187
0.000212469
0.000220345
0.000224837
0.000227308
0.000228624
0.000229302
0.000229634
0.000229768
0.000229767
0.000229631
0.000229297
0.000228618
0.000227305
0.000224842
0.000220365
0.00021251
0.000199259
0.000177884
0.00014535
0.000100981
5.56265e-05
3.08185e-05
2.86965e-05
2.96725e-05
3.19529e-05
5.80374e-05
0.000105022
0.000149834
0.000182005
0.000202658
0.000215132
0.000222302
0.000226229
0.000228274
0.000229283
0.000229751
0.000229953
0.000230026
0.000230026
0.000229954
0.000229754
0.00022929
0.000228289
0.000226258
0.000222349
0.000215203
0.000202757
0.00018214
0.000150009
0.000105209
5.81376e-05
3.19934e-05
2.96609e-05
3.03186e-05
3.2753e-05
5.97566e-05
0.000107939
0.000152919
0.000184734
0.000204838
0.000216756
0.000223448
0.000226999
0.000228766
0.000229578
0.000229914
0.000230036
0.000230072
0.000230073
0.000230041
0.000229923
0.000229594
0.000228794
0.000227044
0.000223513
0.000216844
0.000204951
0.000184873
0.00015308
0.000108096
5.9853e-05
3.27936e-05
3.03081e-05
3.0643e-05
3.31604e-05
6.06322e-05
0.00010941
0.000154457
0.000186076
0.000205892
0.000217527
0.000223978
0.000227342
0.000228971
0.000229687
0.000229961
0.000230045
0.000230063
0.000230065
0.000230051
0.000229973
0.000229709
0.000229006
0.000227394
0.000224051
0.000217622
0.00020601
0.000186214
0.000154609
0.000109552
6.07222e-05
3.31984e-05
3.06329e-05
3.06432e-05
3.31601e-05
6.06335e-05
0.000109416
0.000154464
0.000186082
0.000205897
0.00021753
0.00022398
0.000227343
0.000228972
0.000229688
0.000229962
0.000230046
0.000230064
0.000230065
0.000230051
0.000229973
0.000229708
0.000229005
0.000227394
0.000224051
0.000217623
0.000206011
0.000186216
0.000154613
0.000109555
6.07207e-05
3.3197e-05
3.0633e-05
3.03192e-05
3.27515e-05
5.97595e-05
0.000107955
0.000152938
0.000184751
0.000204851
0.000216765
0.000223454
0.000227003
0.000228769
0.000229581
0.000229918
0.00023004
0.000230075
0.000230075
0.000230042
0.000229923
0.000229593
0.000228793
0.000227043
0.000223513
0.000216846
0.000204955
0.000184881
0.00015309
0.000108107
5.98491e-05
3.27896e-05
3.03082e-05
2.96734e-05
3.19503e-05
5.80415e-05
0.000105049
0.000149865
0.000182032
0.000202678
0.000215147
0.000222312
0.000226237
0.000228281
0.00022929
0.00022976
0.000229962
0.000230035
0.000230034
0.000229959
0.000229757
0.000229291
0.000228289
0.000226258
0.000222351
0.000215207
0.000202765
0.000182152
0.000150025
0.000105226
5.81319e-05
3.19873e-05
2.96612e-05
2.87109e-05
3.07768e-05
5.55297e-05
0.000100779
0.000145203
0.000177797
0.000199211
0.000212487
0.000220359
0.000224849
0.00022732
0.000228638
0.000229319
0.000229652
0.000229787
0.000229784
0.000229645
0.000229308
0.000228625
0.00022731
0.000224847
0.000220372
0.00021252
0.000199272
0.000177901
0.000145371
0.000101003
5.56195e-05
3.08107e-05
2.86972e-05
2.74399e-05
2.92596e-05
5.22793e-05
9.50975e-05
0.000138787
0.000171802
0.00019416
0.000208464
0.000217252
0.000222486
0.000225534
0.00022728
0.000228262
0.000228786
0.000229012
0.000229008
0.000228775
0.000228244
0.000227255
0.000225506
0.000222461
0.000217236
0.000208465
0.000194186
0.000171876
0.000138945
9.53497e-05
5.23619e-05
2.92884e-05
2.74242e-05
2.58718e-05
2.74346e-05
4.83583e-05
8.79178e-05
0.000130298
0.000163648
0.000187079
0.00020257
0.000212423
0.000218544
0.000222304
0.000224602
0.000225985
0.000226769
0.000227122
0.000227119
0.000226757
0.000225964
0.000224571
0.000222265
0.000218502
0.000212384
0.000202539
0.000187066
0.000163682
0.000130425
8.81648e-05
4.84231e-05
2.74561e-05
2.58541e-05
2.40228e-05
2.53418e-05
4.38527e-05
7.9131e-05
0.000119027
0.000152832
0.000177344
0.000194019
0.00020496
0.000212036
0.000216614
0.000219581
0.00022147
0.000222592
0.000223114
0.000223112
0.000222584
0.000221453
0.000219552
0.000216573
0.000211987
0.000204908
0.000193963
0.000177283
0.000152801
0.000119134
7.9326e-05
4.38818e-05
2.53536e-05
2.40038e-05
2.19191e-05
2.30187e-05
3.88894e-05
6.88957e-05
0.000105518
0.000138939
0.000164047
0.000181589
0.000193431
0.000201418
0.000206876
0.00021062
0.000213121
0.000214658
0.000215391
0.000215392
0.000214659
0.000213116
0.000210602
0.000206842
0.000201369
0.000193371
0.000181509
0.000163923
0.000138776
0.000105454
6.89748e-05
3.88793e-05
2.30209e-05
2.19054e-05
1.96234e-05
2.05444e-05
3.37091e-05
5.7843e-05
8.97042e-05
0.000120897
0.000145727
0.000163419
0.000175719
0.000184465
0.00019083
0.000195434
0.000198626
0.000200634
0.000201605
0.000201612
0.000200649
0.000198641
0.000195439
0.000190815
0.000184419
0.00017564
0.000163293
0.000145517
0.00012053
8.94419e-05
5.77678e-05
3.3667e-05
2.05527e-05
1.961e-05
1.71112e-05
1.8284e-05
2.82209e-05
4.62961e-05
7.1735e-05
9.80134e-05
0.00012047
0.000137165
0.000149217
0.000158509
0.000165727
0.000171162
0.000175009
0.000177461
0.000178661
0.000178678
0.000177504
0.000175066
0.00017122
0.000165773
0.000158497
0.000149121
0.000136931
0.000120064
9.75648e-05
7.1435e-05
4.61258e-05
2.81151e-05
1.83528e-05
1.70978e-05
1.44141e-05
1.61162e-05
2.24903e-05
3.51558e-05
5.31492e-05
7.20295e-05
8.83258e-05
0.000101597
0.000112486
0.000121877
0.000129445
0.00013527
0.000139405
0.000142071
0.000143393
0.000143427
0.000142167
0.000139544
0.000135432
0.000129648
0.000122023
0.000112527
0.000101443
8.80128e-05
7.17499e-05
5.28969e-05
3.49701e-05
2.24032e-05
1.62026e-05
1.44093e-05
1.15886e-05
1.36742e-05
1.78005e-05
2.5283e-05
3.51517e-05
4.58098e-05
5.54802e-05
6.4083e-05
7.18009e-05
7.88048e-05
8.47414e-05
8.94582e-05
9.29116e-05
9.51829e-05
9.63385e-05
9.64071e-05
9.53804e-05
9.32098e-05
8.98044e-05
8.509e-05
7.91171e-05
7.20021e-05
6.41261e-05
5.54033e-05
4.5678e-05
3.49803e-05
2.51854e-05
1.77808e-05
1.37761e-05
1.15959e-05
8.73081e-06
1.05061e-05
1.32272e-05
1.65961e-05
2.1748e-05
2.71734e-05
3.22226e-05
3.66741e-05
4.07717e-05
4.44852e-05
4.77007e-05
5.02759e-05
5.21422e-05
5.3385e-05
5.40213e-05
5.40522e-05
5.34745e-05
5.2275e-05
5.0394e-05
4.77528e-05
4.4516e-05
4.07849e-05
3.66601e-05
3.21648e-05
2.7127e-05
2.17172e-05
1.6566e-05
1.32219e-05
1.06041e-05
8.7461e-06
5.16256e-06
1.66799e-06
7.55036e-06
1.1174e-05
1.47717e-05
1.77755e-05
2.03173e-05
2.26802e-05
2.47743e-05
2.65887e-05
2.81244e-05
2.9363e-05
3.02828e-05
3.08946e-05
3.12029e-05
3.12074e-05
3.09071e-05
3.03001e-05
2.93781e-05
2.81307e-05
2.65932e-05
2.4783e-05
2.2693e-05
2.03675e-05
1.78364e-05
1.48316e-05
1.12266e-05
7.58386e-06
1.69742e-06
5.17819e-06
3.58725e-06
6.1292e-06
8.72243e-06
1.10701e-05
1.34134e-05
1.56308e-05
1.76804e-05
1.94523e-05
2.10018e-05
2.23309e-05
2.34397e-05
2.43321e-05
2.50177e-05
2.54771e-05
2.57062e-05
2.57041e-05
2.54707e-05
2.50074e-05
2.43206e-05
2.34275e-05
2.23157e-05
2.09778e-05
1.94269e-05
1.76581e-05
1.56147e-05
1.34059e-05
1.10729e-05
8.73362e-06
6.1443e-06
3.59685e-06
3.33702e-06
5.68231e-06
8.21653e-06
1.0566e-05
1.29337e-05
1.5173e-05
1.72255e-05
1.89776e-05
2.04987e-05
2.18213e-05
2.2934e-05
2.38279e-05
2.44954e-05
2.49424e-05
2.51682e-05
2.51721e-05
2.49539e-05
2.45142e-05
2.38521e-05
2.29617e-05
2.18539e-05
2.05428e-05
1.9023e-05
1.72657e-05
1.52032e-05
1.29506e-05
1.0568e-05
8.20465e-06
5.66341e-06
3.32316e-06
4.83029e-06
2.38381e-06
1.0593e-05
1.58036e-05
2.08667e-05
2.54226e-05
2.93618e-05
3.24349e-05
3.47697e-05
3.65153e-05
3.782e-05
3.87886e-05
3.94865e-05
3.9944e-05
4.01735e-05
4.018e-05
3.99631e-05
3.95173e-05
3.88294e-05
3.78689e-05
3.65645e-05
3.48116e-05
3.24667e-05
2.93419e-05
2.53655e-05
2.0788e-05
1.5723e-05
1.05124e-05
2.33422e-06
4.80759e-06
8.23559e-06
1.26404e-05
1.7246e-05
2.11649e-05
2.41626e-05
2.7222e-05
3.02969e-05
3.3385e-05
3.62214e-05
3.85957e-05
4.0534e-05
4.20965e-05
4.3283e-05
4.4077e-05
4.44795e-05
4.44921e-05
4.41177e-05
4.336e-05
4.22269e-05
4.07645e-05
3.88835e-05
3.65283e-05
3.36564e-05
3.03992e-05
2.72947e-05
2.42412e-05
2.12383e-05
1.72634e-05
1.25081e-05
8.21415e-06
1.10331e-05
1.78515e-05
2.31722e-05
2.50416e-05
2.89252e-05
3.458e-05
4.13913e-05
4.79387e-05
5.33144e-05
5.75721e-05
6.11807e-05
6.41794e-05
6.65102e-05
6.8088e-05
6.88645e-05
6.88143e-05
6.79473e-05
6.62958e-05
6.39172e-05
6.09067e-05
5.73428e-05
5.32082e-05
4.80358e-05
4.14475e-05
3.46713e-05
2.91494e-05
2.51844e-05
2.31381e-05
1.75835e-05
1.10187e-05
1.38005e-05
2.18669e-05
2.63291e-05
2.96508e-05
3.78658e-05
5.05209e-05
6.27427e-05
7.2613e-05
8.02816e-05
8.64783e-05
9.15361e-05
9.56754e-05
9.90617e-05
0.000101385
0.000102562
0.000102505
0.000101271
9.89057e-05
9.54785e-05
9.11989e-05
8.62552e-05
8.02995e-05
7.28248e-05
6.27032e-05
5.01265e-05
3.7981e-05
2.98082e-05
2.63064e-05
2.17168e-05
1.38086e-05
1.64509e-05
2.54274e-05
2.86483e-05
3.60818e-05
5.12305e-05
6.9746e-05
8.8171e-05
0.000102592
0.000114021
0.000122686
0.00012928
0.000134313
0.000138077
0.000140589
0.000141823
0.00014176
0.000140423
0.000137847
0.000134054
0.000129041
0.000122612
0.00011417
0.000102914
8.82784e-05
6.98462e-05
5.11523e-05
3.61471e-05
2.86737e-05
2.53487e-05
1.64742e-05
1.89297e-05
2.82566e-05
3.14011e-05
4.38625e-05
6.40983e-05
8.84416e-05
0.000111729
0.000130035
0.000143506
0.000153255
0.000160288
0.000165354
0.000168908
0.000171181
0.000172282
0.000172259
0.000171128
0.000168858
0.000165341
0.000160343
0.000153411
0.000143727
0.000130247
0.000112002
8.90743e-05
6.44216e-05
4.3971e-05
3.16202e-05
2.82681e-05
1.89546e-05
2.12108e-05
3.03803e-05
3.47203e-05
5.09583e-05
7.52044e-05
0.000104453
0.00013098
0.000150962
0.00016525
0.000175286
0.000182267
0.000187068
0.000190276
0.000192248
0.000193187
0.000193186
0.000192256
0.000190312
0.000187155
0.000182416
0.000175496
0.000165495
0.000151209
0.000131258
0.000104759
7.5325e-05
5.09145e-05
3.49613e-05
3.03996e-05
2.12363e-05
2.32413e-05
3.20593e-05
3.80599e-05
5.71327e-05
8.48552e-05
0.000118192
0.000145941
0.000166286
0.000180595
0.000190431
0.000197075
0.000201479
0.000204303
0.000205978
0.00020676
0.000206769
0.00020601
0.000204368
0.000201589
0.000197233
0.000190629
0.000180814
0.000166505
0.000146125
0.000118241
8.47373e-05
5.69763e-05
3.82511e-05
3.20762e-05
2.32697e-05
2.50231e-05
3.34227e-05
4.12637e-05
6.30687e-05
9.46893e-05
0.00012981
0.000157478
0.000177456
0.000191297
0.000200634
0.000206785
0.000210734
0.000213176
0.000214577
0.000215215
0.000215226
0.000214611
0.00021324
0.000210831
0.000206913
0.000200783
0.00019145
0.000177585
0.00015753
0.000129662
9.43937e-05
6.28123e-05
4.12896e-05
3.34348e-05
2.50497e-05
2.65409e-05
3.45314e-05
4.40853e-05
6.83657e-05
0.000103282
0.000138871
0.000166162
0.000185498
0.000198675
0.000207397
0.000213007
0.000216505
0.000218595
0.000219754
0.000220269
0.000220278
0.000219781
0.000218643
0.000216572
0.00021309
0.000207484
0.00019875
0.000185538
0.00016613
0.000138713
0.000102952
6.81165e-05
4.40841e-05
3.45454e-05
2.65649e-05
2.77778e-05
3.54251e-05
4.65088e-05
7.28046e-05
0.000110216
0.000145796
0.000172534
0.000191174
0.000203674
0.000211793
0.000216898
0.000219992
0.000221783
0.000222742
0.000223156
0.000223162
0.000222758
0.00022181
0.000220027
0.000216934
0.00021182
0.000203677
0.000191136
0.000172433
0.000145601
0.000109917
7.26161e-05
4.65037e-05
3.54391e-05
2.77995e-05
2.87191e-05
3.6109e-05
4.84304e-05
7.62159e-05
0.000115408
0.000150829
0.00017702
0.000195037
0.000206949
0.000214559
0.000219248
0.000222018
0.000223574
0.000224381
0.00022472
0.000224722
0.000224387
0.000223583
0.000222024
0.000219244
0.000214536
0.000206896
0.000194941
0.00017687
0.000150617
0.000115155
7.60961e-05
4.84252e-05
3.61211e-05
2.8739e-05
2.93531e-05
3.65774e-05
4.9761e-05
7.8475e-05
0.000118841
0.000154114
0.000179889
0.000197444
0.000208929
0.000216174
0.000220567
0.000223114
0.00022451
0.000225215
0.000225503
0.000225503
0.000225213
0.000224505
0.000223099
0.000220537
0.000216118
0.000208841
0.000197315
0.000179714
0.000153901
0.000118623
7.83908e-05
4.97548e-05
3.65828e-05
2.93715e-05
2.96721e-05
3.68314e-05
5.04428e-05
7.96107e-05
0.000120545
0.000155735
0.000181289
0.000198601
0.000209862
0.000216917
0.000221158
0.00022359
0.000224906
0.00022556
0.000225823
0.000225822
0.000225555
0.000224895
0.000223567
0.000221116
0.000216848
0.000209759
0.000198459
0.000181107
0.000155526
0.000120347
7.95416e-05
5.04341e-05
3.68146e-05
2.96893e-05
2.96714e-05
3.68317e-05
5.04423e-05
7.96063e-05
0.000120539
0.00015573
0.000181285
0.0001986
0.000209862
0.000216918
0.00022116
0.000223592
0.000224907
0.00022556
0.000225824
0.000225823
0.000225557
0.000224898
0.000223571
0.000221121
0.000216853
0.000209764
0.000198463
0.000181109
0.000155525
0.000120342
7.95345e-05
5.04334e-05
3.68117e-05
2.96887e-05
2.93509e-05
3.65693e-05
4.97587e-05
7.84609e-05
0.000118821
0.000154099
0.000179879
0.00019744
0.000208929
0.000216176
0.00022057
0.000223116
0.000224512
0.000225216
0.000225504
0.000225505
0.000225218
0.000224512
0.00022311
0.00022055
0.000216133
0.000208855
0.000197326
0.000179721
0.000153899
0.000118609
7.83708e-05
4.97525e-05
3.65741e-05
2.93695e-05
2.87155e-05
3.6095e-05
4.84264e-05
7.619e-05
0.000115374
0.000150806
0.000177008
0.000195033
0.000206951
0.000214563
0.000219251
0.00022202
0.000223574
0.000224379
0.000224717
0.000224722
0.000224391
0.000223591
0.000222038
0.000219262
0.000214558
0.000206918
0.00019496
0.000176883
0.000150618
0.000115135
7.60665e-05
4.84215e-05
3.61059e-05
2.87356e-05
2.77733e-05
3.54065e-05
4.65033e-05
7.27636e-05
0.000110168
0.000145769
0.000172524
0.000191173
0.000203677
0.000211798
0.0002169
0.00021999
0.000221775
0.00022273
0.000223144
0.000223152
0.000222754
0.000221814
0.000220039
0.000216953
0.000211844
0.000203703
0.000191162
0.000172453
0.000145608
0.000109898
7.25802e-05
4.64987e-05
3.54182e-05
2.77946e-05
2.65357e-05
3.45092e-05
4.40806e-05
6.83134e-05
0.000103225
0.000138848
0.000166161
0.000185504
0.000198682
0.000207401
0.000213004
0.000216492
0.000218573
0.000219726
0.000220239
0.000220251
0.000219763
0.000218635
0.000216576
0.000213105
0.000207507
0.000198778
0.000185568
0.000166159
0.000138729
0.000102941
6.80847e-05
4.40789e-05
3.45196e-05
2.65583e-05
2.50179e-05
3.33988e-05
4.12714e-05
6.30203e-05
9.46349e-05
0.00012979
0.00015749
0.000177472
0.000191309
0.000200636
0.000206773
0.000210705
0.000213133
0.000214523
0.000215159
0.000215174
0.00021457
0.000213214
0.000210821
0.000206918
0.0002008
0.000191476
0.000177619
0.000157569
0.000129698
9.43958e-05
6.27939e-05
4.1286e-05
3.34043e-05
2.50413e-05
2.32363e-05
3.20387e-05
3.81408e-05
5.71109e-05
8.48316e-05
0.000118198
0.000145969
0.000166314
0.000180611
0.000190429
0.000197049
0.000201428
0.000204231
0.000205892
0.000206669
0.000206685
0.00020594
0.000204319