/*--------------------------------*- C++ -*----------------------------------*\
| =========                 |                                                 |
| \\      /  F ield         | OpenFOAM: The Open Source CFD Toolbox           |
|  \\    /   O peration     | Version:  2312                                  |
|   \\  /    A nd           | Website:  www.openfoam.com                      |
|    \\/     M anipulation  |                                                 |
\*---------------------------------------------------------------------------*/
FoamFile
{
    version     2.0;
    format      ascii;
    arch        "LSB;label=32;scalar=64";
    class       surfaceScalarField;
    location    "700";
    object      phi;
}
// * * * * * * * * * * * * * * * * * * * * * * * * * * * * * * * * * * * * * //

dimensions      [1 0 -1 0 0 0 0];

oriented        oriented;

internalField   nonuniform List<scalar> 
78300
(
-0.000124545
0.000320596
0.00756334
0.00253683
0.00139937
0.00977731
0.00232025
0.00484393
0.01501
0.00246668
0.00537256
0.019606
0.00263213
0.00593529
0.0241695
0.00277424
0.00641594
0.0284863
0.00285314
0.00685174
0.0324901
0.00283401
0.00722666
0.0361673
0.00268911
0.00753726
0.0394922
0.00242037
0.00778427
0.0424147
0.00204436
0.00797414
0.0448967
0.00158323
0.00811467
0.0469104
0.00105994
0.00821361
0.0484357
0.000497931
0.00827529
0.0494591
-8.03152e-05
0.00830331
0.0499719
-0.000652799
0.00829957
0.0499699
-0.00119731
0.00826392
0.0494529
-0.00169091
0.00819434
0.0484253
-0.00210961
0.00808715
0.0468955
-0.00243035
0.00793806
0.0448775
-0.00263259
0.00773985
0.0423926
-0.00270307
0.00748688
0.0394681
-0.0026477
0.00717764
0.0361418
-0.00250821
0.00681518
0.032466
-0.00233503
0.00640427
0.0284669
-0.00217875
0.00595618
0.0241577
-0.00209712
0.00543965
0.0196037
-0.00241516
0.00493991
0.0150155
0.000157583
0.0014777
0.0097876
0.000340765
0.00757621
0.00331622
0.00428447
0.00974161
0.00545588
0.00418117
0.0179682
0.00629202
0.0075175
0.0249783
0.00628648
0.00839809
0.0307657
0.00610904
0.00888734
0.0359783
0.00585846
0.00923267
0.0407959
0.00555683
0.00951277
0.0452279
0.00517842
0.00975967
0.0492504
0.00469665
0.00997306
0.0528397
0.00409977
0.0101469
0.0559687
0.0033945
0.0102799
0.0586103
0.00259933
0.0103753
0.0607432
0.00173835
0.0104386
0.062353
0.000836097
0.0104747
0.0634302
-8.27573e-05
0.0104875
0.0639686
-0.000993666
0.010479
0.0639654
-0.00187224
0.0104495
0.0634203
-0.00269425
0.010397
0.0623364
-0.00343648
0.0103184
0.0607197
-0.00407765
0.0102099
0.0585801
-0.00460561
0.0100687
0.0559336
-0.00502349
0.00989609
0.0528024
-0.00535414
0.00969844
0.0492149
-0.00563786
0.00948595
0.0452003
-0.0059127
0.00925753
0.0407837
-0.006163
0.0089732
0.0359862
-0.00626426
0.00853353
0.0307931
-0.00551819
0.00766509
0.0250168
-0.00341034
0.0042501
0.0180094
0.00419476
0.00975737
0.0069341
0.00368949
0.0199275
0.00964357
0.00604034
0.0273581
0.0103367
0.00894136
0.0352102
0.00987089
0.00982154
0.0414799
0.00905761
0.0101635
0.0467667
0.00819824
0.0103214
0.0514469
0.00736242
0.010421
0.0556803
0.0065436
0.0105134
0.0595012
0.00571422
0.0106067
0.0629014
0.00484996
0.0106934
0.065861
0.00393937
0.0107645
0.0683585
0.0029823
0.0108165
0.0703763
0.00198752
0.0108489
0.0719004
0.000968436
0.0108642
0.0729204
-5.92562e-05
0.010865
0.0734298
-0.00107901
0.0108531
0.0734254
-0.00207481
0.0108289
0.0729073
-0.00303265
0.0107918
0.0718789
-0.00394238
0.0107409
0.0703476
-0.00480093
0.0106765
0.0683246
-0.00561658
0.010603
0.0658245
-0.00641078
0.0105287
0.0628673
-0.0072183
0.0104659
0.0594761
-0.00807497
0.0104228
0.0556725
-0.00898926
0.0103843
0.0514638
-0.00988138
0.0102848
0.0468101
-0.0104226
0.00997144
0.0415409
-0.00975146
0.00905507
0.0352661
-0.00700161
0.00603217
0.0273949
0.00352027
0.0199395
0.00703929
0.00410965
0.0279129
0.0102499
0.00677473
0.0368852
0.0111415
0.00937808
0.0447095
0.010824
0.0101909
0.0509142
0.00999029
0.0104973
0.0560875
0.00899561
0.0105906
0.0606016
0.00797781
0.0106049
0.0646418
0.00697755
0.0106047
0.0682695
0.00599561
0.0106123
0.0714908
0.00501907
0.0106288
0.0742926
0.00403484
0.0106472
0.076658
0.00303568
0.0106613
0.0785706
0.00202093
0.0106677
0.0800164
0.000995461
0.0106659
0.0809847
-3.26184e-05
0.0106571
0.0814684
-0.00105402
0.0106428
0.0814642
-0.00206027
0.0106238
0.0809722
-0.00304565
0.010601
0.0799966
-0.00400982
0.0105761
0.0785453
-0.00495984
0.0105529
0.0766302
-0.00591069
0.0105388
0.0742667
-0.00688355
0.0105432
0.0714728
-0.00789786
0.010574
0.0682669
-0.00895454
0.0106259
0.0646615
-0.0100079
0.0106663
0.0606475
-0.0109029
0.0106121
0.0561553
-0.0112591
0.0103074
0.0509863
-0.0103554
0.00942964
0.0447596
-0.00709226
0.00669353
0.0369057
0.00388638
0.0279139
0.00789923
0.00436599
0.0360631
0.0108777
0.00723024
0.0460481
0.0115316
0.00943151
0.0537971
0.01118
0.0101032
0.0596971
0.0103738
0.0103669
0.064652
0.00937426
0.0104354
0.0690069
0.00830753
0.0104155
0.0729012
0.00723291
0.0103666
0.0763851
0.0061725
0.0103185
0.0794693
0.00512951
0.0102806
0.082147
0.00409795
0.0102527
0.0844057
0.00307094
0.0102307
0.0862317
0.00204434
0.0102109
0.0876122
0.00101749
0.010192
0.0885371
-7.49782e-06
0.010174
0.0889995
-0.00102757
0.010158
0.0889962
-0.00204043
0.0101455
0.0885275
-0.00304685
0.0101387
0.0875975
-0.00405175
0.0101409
0.0862142
-0.00506528
0.0101573
0.0843887
-0.00610034
0.0101945
0.0821351
-0.00716805
0.0102578
0.0794681
-0.00826739
0.0103455
0.0764001
-0.00937325
0.0104409
0.0729358
-0.0104174
0.0105022
0.0690604
-0.01126
0.0104536
0.0647165
-0.0116206
0.0101713
0.0597545
-0.0109377
0.00942652
0.0538246
-0.00791261
0.00710538
0.0460452
0.00414176
0.0360506
0.00850369
0.00453239
0.0440186
0.0112791
0.0073875
0.054835
0.0117278
0.00922598
0.0623714
0.0113148
0.00975988
0.0679584
0.0105256
0.00996921
0.0726912
0.00955244
0.0100158
0.0768901
0.00849265
0.00997763
0.0806562
0.0074015
0.00990258
0.0840224
0.00631024
0.00981855
0.0869958
0.00523229
0.00974045
0.0895722
0.00417011
0.00967386
0.0917422
0.0031208
0.00961892
0.0934948
0.00208034
0.00957405
0.0948192
0.0010458
0.00953816
0.0957065
1.55233e-05
0.00951125
0.0961504
-0.00101165
0.00949447
0.0961481
-0.00203781
0.00948975
0.0957
-0.00306693
0.00949987
0.0948098
-0.00410588
0.00952872
0.0934848
-0.00516288
0.00958064
0.0917349
-0.00624485
0.00965923
0.0895713
-0.00735144
0.00976377
0.0870052
-0.00846798
0.00988436
0.0840449
-0.00955837
0.0099978
0.0806921
-0.0105587
0.0100644
0.0769356
-0.0113618
0.0100241
0.0727369
-0.0117665
0.00978829
0.0679897
-0.0112882
0.00918901
0.0623738
-0.00848659
0.00725877
0.0548127
0.004346
0.0439978
0.00897041
0.00457752
0.0516546
0.0115246
0.00730296
0.0631074
0.0118183
0.008812
0.0703803
0.0113594
0.00922417
0.0756872
0.0105847
0.00937695
0.080217
0.00964404
0.00939928
0.084266
0.00861066
0.00934721
0.087911
0.00753115
0.00925616
0.0911709
0.00643617
0.00914976
0.094048
0.00534376
0.00904403
0.0965374
0.00426217
0.00894818
0.0986313
0.00319288
0.00886644
0.100321
0.0021341
0.00879991
0.101596
0.00108288
0.00874906
0.102451
3.61643e-05
0.00871455
0.102879
-0.00100921
0.00869782
0.102877
-0.00205713
0.00870113
0.102447
-0.0031125
0.0087273
0.101591
-0.00418082
0.00877946
0.100316
-0.00526657
0.00886
0.0986304
-0.00636996
0.00896863
0.0965425
-0.0074826
0.00909932
0.0940613
-0.00858374
0.00923748
0.091193
-0.00963768
0.0093589
0.08794
-0.0105917
0.00943033
0.0842969
-0.011367
0.00940825
0.0802412
-0.0118118
0.00923129
0.0756944
-0.0114967
0.00876998
0.0703639
-0.00893748
0.00720132
0.0630753
0.00445016
0.0516285
0.00933061
0.00447216
0.0588321
0.0116929
0.00699158
0.0707553
0.0118657
0.00821395
0.0777638
0.0113737
0.00852102
0.0828243
0.0106113
0.00862164
0.0871713
0.009701
0.00861922
0.0910796
0.00869893
0.0085551
0.094609
0.00764213
0.00845413
0.0977698
0.00655728
0.00833499
0.10056
0.00546279
0.00821247
0.102972
0.0043694
0.00809753
0.105
0.00328205
0.00799693
0.106635
0.00220153
0.0079145
0.107869
0.00112641
0.00785245
0.108695
5.42049e-05
0.00781253
0.109108
-0.00101823
0.00779675
0.109108
-0.00209434
0.00780732
0.108693
-0.00317775
0.00784668
0.107867
-0.00427123
0.00791662
0.106634
-0.00537498
0.00801714
0.105003
-0.00648413
0.00814452
0.10298
-0.00758641
0.0082894
0.100572
-0.00866055
0.00843556
0.0977871
-0.00967594
0.00856098
0.0946281
-0.010592
0.00863996
0.0910956
-0.0113506
0.00864263
0.0871777
-0.011831
0.00852602
0.0828148
-0.0116482
0.00818862
0.0777372
-0.00929596
0.00693453
0.0707207
0.00440595
0.0588056
0.0096165
0.00420284
0.065405
0.0118196
0.00646552
0.0776817
0.0119002
0.00744327
0.0844459
0.0113835
0.00766368
0.0892924
0.0106309
0.00772015
0.0934773
0.00974628
0.00769593
0.097256
0.00877396
0.00762225
0.100678
0.0077426
0.00751623
0.103746
0.00667375
0.00739196
0.106457
0.00558353
0.00726229
0.108802
0.00448322
0.00713809
0.110772
0.00337957
0.00702753
0.112359
0.00227574
0.00693628
0.113557
0.00117256
0.00686803
0.114359
6.93085e-05
0.00682563
0.114761
-0.0010353
0.00681146
0.11476
-0.00214284
0.00682776
0.114358
-0.00325428
0.00687619
0.113557
-0.0043691
0.00695713
0.11236
-0.00548385
0.00706851
0.110775
-0.00659074
0.00720438
0.108808
-0.00767657
0.0073539
0.106466
-0.00872266
0.0075015
0.103757
-0.00970498
0.00762859
0.100687
-0.0105934
0.00771617
0.0972603
-0.0113434
0.00774419
0.0934717
-0.0118544
0.00768148
0.089274
-0.0117734
0.00744717
0.0844162
-0.00958649
0.00645638
0.07765
0.00418958
0.065382
0.00983976
0.00377661
0.071252
0.0119158
0.00573965
0.0837971
0.0119298
0.00650916
0.0903456
0.0113964
0.00666148
0.0950115
0.0106526
0.00668414
0.0990555
0.00978935
0.00664405
0.102719
0.0088432
0.00656497
0.106042
0.00783598
0.00645899
0.109028
0.00678404
0.00633662
0.111667
0.00570053
0.00620839
0.113952
0.00459576
0.0060843
0.115872
0.00347726
0.00597273
0.117419
0.00235013
0.00588014
0.118586
0.00121747
0.00581123
0.119368
8.12199e-05
0.00576949
0.119759
-0.0010573
0.00575759
0.119759
-0.00219673
0.00577759
0.119368
-0.00333487
0.00583038
0.118587
-0.00446805
0.00591525
0.117421
-0.00559009
0.00602878
0.115875
-0.00669185
0.00616403
0.113957
-0.00776104
0.00631023
0.111673
-0.00878249
0.00645354
0.109033
-0.00973851
0.00657914
0.106044
-0.0106069
0.00667305
0.102715
-0.0113519
0.00672149
0.0990435
-0.0118854
0.00670098
0.0949899
-0.0118767
0.00654636
0.0903175
-0.00981781
0.0057737
0.083771
0.00380347
0.0712338
0.0100097
0.00321067
0.0762751
0.0119864
0.00483638
0.089021
0.0119547
0.00542542
0.095387
0.0114123
0.00552597
0.0999045
0.0106778
0.00552547
0.10383
0.00983303
0.00547712
0.107394
0.00890916
0.00539844
0.110632
0.00792284
0.00529836
0.113545
0.00688613
0.00518468
0.116124
0.00580911
0.00506587
0.118357
0.00470071
0.00495045
0.120234
0.00356861
0.00484621
0.121748
0.00241927
0.00475953
0.122889
0.00125806
0.00469535
0.123654
8.96184e-05
0.00465737
0.124037
-0.00108173
0.00464828
0.124037
-0.00225138
0.0046698
0.123654
-0.00341409
0.00472234
0.12289
-0.00456335
0.00480447
0.121749
-0.00569114
0.00491224
0.120236
-0.00678793
0.00503882
0.118359
-0.0078429
0.0051745
0.116126
-0.00884444
0.00530777
0.113546
-0.00977972
0.005427
0.11063
-0.0106321
0.00552186
0.107386
-0.0113717
0.00558229
0.103816
-0.0119183
0.00559063
0.0998836
-0.0119576
0.00549416
0.0953631
-0.0099956
0.00490506
0.0890011
0.00326562
0.0762611
0.0101347
0.00252899
0.0803917
0.0120362
0.00378455
0.0932844
0.0119746
0.0042124
0.0995036
0.0114294
0.00427409
0.103904
0.0107045
0.00426025
0.107735
0.00987596
0.00421101
0.111217
0.0089706
0.00413915
0.114386
0.00800138
0.00405111
0.117238
0.00697697
0.00395273
0.119766
0.00590499
0.00385054
0.121956
0.00479296
0.00375141
0.123799
0.00364847
0.00366186
0.125285
0.00247902
0.00358751
0.126406
0.00129189
0.0035329
0.127157
9.4261e-05
0.00350141
0.127534
-0.00110665
0.00349551
0.127534
-0.00230332
0.00351657
0.127157
-0.00348768
0.00356466
0.126407
-0.00465099
0.00363815
0.125286
-0.00578399
0.00373333
0.1238
-0.00687712
0.0038442
0.121957
-0.00792108
0.00396275
0.119765
-0.00890699
0.00407995
0.117236
-0.00982561
0.00418687
0.11438
-0.0106641
0.0042758
0.111207
-0.0113965
0.00433914
0.10772
-0.011948
0.00436358
0.103885
-0.0120172
0.00430819
0.0994842
-0.010127
0.00387916
0.0932698
0.00260234
0.080381
0.0102224
0.00175871
0.0835362
0.0120697
0.00261784
0.0965315
0.01199
0.00289661
0.10264
0.0114458
0.00292865
0.106953
0.0107302
0.00290919
0.110713
0.00991518
0.00286548
0.114134
0.0090244
0.00280625
0.117249
0.00806818
0.00273595
0.120055
0.00705276
0.00265876
0.122544
0.00598389
0.00257939
0.124701
0.00486804
0.00250286
0.126518
0.00371268
0.00243405
0.127983
0.00252608
0.00237729
0.129089
0.0013171
0.00233614
0.129829
9.49893e-05
0.00231337
0.130201
-0.00113062
0.0023109
0.130201
-0.00234972
0.00232976
0.129829
-0.00355205
0.00236993
0.129089
-0.00472717
0.00242997
0.127983
-0.0058649
0.00250691
0.126518
-0.00695582
0.00259617
0.1247
-0.00799177
0.0026918
0.122541
-0.0089658
0.00278718
0.120051
-0.0098711
0.00287587
0.117241
-0.0106974
0.00295214
0.114123
-0.0114215
0.00301038
0.110699
-0.0119723
0.00304083
0.106937
-0.0120586
0.0030146
0.102625
-0.0102191
0.00273112
0.0965207
0.00184362
0.0835279
0.0102784
0.000928114
0.0856598
0.0120912
0.00137238
0.09872
0.0120018
0.00150911
0.104755
0.0114603
0.00151735
0.10901
0.0107525
0.00149746
0.112723
0.00994737
0.00146401
0.116102
0.00906679
0.00142188
0.119181
0.0081192
0.0013738
0.121957
0.00710929
0.00132241
0.124418
0.00604161
0.00127057
0.126554
0.00492197
0.00122135
0.128352
0.00375778
0.00117769
0.129803
0.00255788
0.00114229
0.130899
0.00133226
0.00111742
0.131632
9.17029e-05
0.00110486
0.132
-0.00115238
0.0011059
0.132
-0.00238828
0.00112125
0.131632
-0.00360406
0.00115086
0.130899
-0.00478817
0.00119386
0.129803
-0.00592983
0.00124836
0.128351
-0.00701969
0.00131152
0.126552
-0.00805029
0.00137965
0.124415
-0.00901589
0.00144861
0.121951
-0.00991119
0.00151422
0.119173
-0.0107276
0.0015726
0.116092
-0.0114437
0.00161982
0.11271
-0.011991
0.00164966
0.108996
-0.0120854
0.00164528
0.104742
-0.0102779
0.00149942
0.0987115
0.00102049
0.0856528
0.0103066
6.61571e-05
0.0867297
0.0121034
8.58144e-05
0.0998216
0.0120107
8.37491e-05
0.10582
0.0114719
7.10776e-05
0.110046
0.010769
5.35227e-05
0.113735
0.00996954
3.29746e-05
0.117094
0.00909426
1.06045e-05
0.120155
0.00815071
-1.25133e-05
0.122915
0.00714283
-3.53353e-05
0.125363
0.00607459
-5.68116e-05
0.127487
0.00495153
-7.59972e-05
0.129277
0.00378109
-9.19728e-05
0.130721
0.00257249
-0.000103893
0.131811
0.00133639
-0.000110986
0.132541
8.44467e-05
-0.000112567
0.132907
-0.00117096
-0.000108079
0.132907
-0.00241706
-9.7174e-05
0.132541
-0.00364111
-7.97326e-05
0.131811
-0.00483085
-5.5983e-05
0.13072
-0.00597517
-2.64932e-05
0.129275
-0.00706473
7.79391e-06
0.127485
-0.0080924
4.55831e-05
0.125359
-0.00905303
8.52243e-05
0.122909
-0.00994205
0.000124801
0.120147
-0.0107518
0.000162231
0.117084
-0.0114616
0.000195275
0.113723
-0.0120048
0.000221251
0.110032
-0.0121008
0.000235361
0.105807
-0.0103073
0.000223927
0.0998139
0.000164296
0.0867233
0.0103084
-0.000797791
0.0867299
0.0121074
-0.00120333
0.099822
0.0120169
-0.00134419
0.10582
0.0114799
-0.00137753
0.110046
0.0107784
-0.00139242
0.113736
0.00997961
-0.00139959
0.117095
0.00910438
-0.00140162
0.120156
0.00816015
-0.00139915
0.122916
0.00715082
-0.00139269
0.125364
0.00608046
-0.00138316
0.127488
0.00495465
-0.0013717
0.129278
0.00378098
-0.00135951
0.130722
0.00256882
-0.00134763
0.131812
0.001329
-0.0013368
0.132542
7.33528e-05
-0.00132744
0.132908
-0.00118553
-0.00131975
0.132908
-0.00243475
-0.00131368
0.132542
-0.00366137
-0.001309
0.131812
-0.00485301
-0.0013052
0.130721
-0.00599845
-0.00130153
0.129277
-0.0070883
-0.00129694
0.127486
-0.0081154
-0.00129034
0.12536
-0.00907462
-0.00128079
0.12291
-0.00996146
-0.00126792
0.120148
-0.0107683
-0.00125196
0.117085
-0.0114748
-0.00123341
0.113723
-0.0120142
-0.00121138
0.110033
-0.0121063
-0.00117855
0.105808
-0.0103093
-0.00105493
0.0998137
-0.000693763
0.0867231
0.0102836
-0.00163408
0.0856603
0.0121029
-0.00245625
0.0987208
0.0120198
-0.00273915
0.104756
0.0114836
-0.00279568
0.109011
0.0107797
-0.00280997
0.112725
0.00997671
-0.00280551
0.116105
0.00909624
-0.00278877
0.119184
0.00814658
-0.00276215
0.121959
0.00713243
-0.0027279
0.124421
0.00605846
-0.00268887
0.126557
0.00493074
-0.00264837
0.128356
0.00375706
-0.00260963
0.129806
0.00254671
-0.00257543
0.130902
0.00131016
-0.00254788
0.131636
5.87581e-05
-0.00252843
0.132004
-0.00119561
-0.00251789
0.132004
-0.00244065
-0.00251656
0.131636
-0.00366403
-0.00252411
0.130902
-0.00485377
-0.00253943
0.129807
-0.00599878
-0.00256054
0.128355
-0.00708953
-0.00258454
0.126556
-0.00811852
-0.00260789
0.124418
-0.00908004
-0.0026271
0.121955
-0.00996897
-0.00263932
0.119177
-0.010777
-0.00264283
0.116095
-0.0114831
-0.00263626
0.112712
-0.0120194
-0.00261513
0.108997
-0.0121023
-0.00255989
0.104742
-0.0102842
-0.0022968
0.0987111
-0.00152276
0.0856524
0.0102303
-0.00241304
0.083537
0.012088
-0.00363455
0.0965326
0.0120183
-0.00406657
0.102642
0.0114825
-0.00415182
0.106955
0.010773
-0.00417019
0.110716
0.00996123
-0.00415805
0.114138
0.0090705
-0.00412603
0.117253
0.00811084
-0.00407862
0.12006
0.00708854
-0.00401996
0.122549
0.00600953
-0.00395497
0.124707
0.00488075
-0.00388907
0.126523
0.00371024
-0.00382736
0.127988
0.00250696
-0.00377404
0.129094
0.00128056
-0.0037323
0.129834
4.11179e-05
-0.0037043
0.130206
-0.00120091
-0.00369139
0.130206
-0.00243473
-0.00369415
0.129835
-0.0036493
-0.00371229
0.129095
-0.00483356
-0.00374439
0.127989
-0.00597684
-0.00378749
0.126524
-0.00706941
-0.0038371
0.124707
-0.00810295
-0.00388741
0.122547
-0.00907061
-0.00393222
0.120057
-0.0099658
-0.00396604
0.117247
-0.0107787
-0.00398486
0.114128
-0.0114868
-0.00398513
0.110703
-0.0120196
-0.00395859
0.10694
-0.012087
-0.00387347
0.102626
-0.0102301
-0.00346206
0.0965204
-0.00229196
0.0835274
0.0101446
-0.00310534
0.0803925
0.0120593
-0.00470076
0.0932855
0.0120107
-0.00529428
0.0995053
0.0114764
-0.00541738
0.103907
0.0107592
-0.0054472
0.107739
0.00993476
-0.00543322
0.111222
0.00902917
-0.00539091
0.114391
0.00805518
-0.00532745
0.117245
0.00702151
-0.00524923
0.119772
0.00593608
-0.00516348
0.121963
0.00480701
-0.00507764
0.123806
0.00364264
-0.00499827
0.125291
0.00245138
-0.00493062
0.126413
0.00124147
-0.00487835
0.127164
2.11213e-05
-0.00484402
0.12754
-0.0012014
-0.00482925
0.12754
-0.00241751
-0.00483492
0.127164
-0.00361817
-0.00486099
0.126414
-0.00479382
-0.00490602
0.125293
-0.00593445
-0.00496671
0.123808
-0.0070301
-0.00503737
0.121965
-0.00807126
-0.0051102
0.119773
-0.00904909
-0.00517627
0.117244
-0.0099546
-0.00522706
0.114388
-0.0107755
-0.0052556
0.111214
-0.0114866
-0.00525562
0.107726
-0.0120139
-0.00521413
0.103889
-0.0120573
-0.00508736
0.0994864
-0.0101428
-0.00451249
0.09327
-0.00297078
0.0803808
0.0100205
-0.0036826
0.0762756
0.0120124
-0.00561971
0.0890215
0.0119955
-0.00639446
0.0953885
0.0114658
-0.00656858
0.0999076
0.0107401
-0.0066196
0.103835
0.00989977
-0.00661076
0.1074
0.00897512
-0.00656387
0.11064
0.0079827
-0.00648971
0.113553
0.00693465
-0.00639771
0.116131
0.00584154
-0.00629766
0.118364
0.00471298
-0.00619881
0.120242
0.00355756
-0.00610869
0.121755
0.00238267
-0.00603273
0.122896
0.00119479
-0.00597457
0.123661
-3.33962e-07
-0.00593661
0.124044
-0.00119716
-0.00592051
0.124044
-0.00238993
-0.00592742
0.123662
-0.0035722
-0.00595777
0.122898
-0.00473642
-0.00601067
0.121758
-0.00587376
-0.006083
0.120246
-0.00697409
-0.00616872
0.118369
-0.0080263
-0.00625864
0.116136
-0.00901874
-0.00634115
0.113556
-0.00993884
-0.00640415
0.110639
-0.0107705
-0.00643673
0.107395
-0.0114845
-0.00642839
0.103824
-0.0120016
-0.00636017
0.0998899
-0.012009
-0.00617515
0.0953668
-0.0100161
-0.00541309
0.0890021
-0.00352935
0.0762613
0.0098504
-0.00411938
0.0712519
0.0119423
-0.00636095
0.0837966
0.0119724
-0.00734573
0.0903466
0.0114527
-0.00758785
0.0950149
0.0107182
-0.00767068
0.0990612
0.00985907
-0.00767421
0.102726
0.00891126
-0.00762803
0.106051
0.00789653
-0.00754836
0.109037
0.00683155
-0.0074488
0.111676
0.00573006
-0.00734192
0.11396
0.00460317
-0.00723827
0.11588
0.00345933
-0.00714545
0.117427
0.00230457
-0.00706824
0.118593
0.00114308
-0.00700946
0.119375
-2.21441e-05
-0.00697086
0.119767
-0.00118853
-0.00695397
0.119767
-0.00235342
-0.00696012
0.119376
-0.00351337
-0.0069904
0.118596
-0.00466352
-0.00704489
0.11743
-0.00579671
-0.00712158
0.115885
-0.00690307
-0.0072151
0.113967
-0.00796991
-0.00731577
0.111684
-0.00898198
-0.0074099
0.109044
-0.00992179
-0.00748127
0.106056
-0.0107675
-0.00751356
0.102726
-0.0114842
-0.00748957
0.0990536
-0.0119845
-0.00738233
0.0949983
-0.0119388
-0.00711854
0.0903232
-0.00984292
-0.00613502
0.0837733
-0.00394138
0.0712346
0.00962581
-0.00439701
0.065404
0.0118449
-0.00690131
0.07768
0.0119423
-0.00813401
0.0844466
0.0114396
-0.00846322
0.0892965
0.0106961
-0.00858819
0.0934843
0.00981453
-0.00860956
0.097265
0.00883911
-0.00856765
0.100687
0.00779877
-0.00848713
0.103756
0.00671553
-0.00838665
0.106466
0.00560634
-0.00828143
0.10881
0.00448321
-0.00818226
0.110779
0.00335375
-0.00809568
0.112366
0.00222199
-0.00802472
0.113563
0.00108956
-0.00797073
0.114365
-4.31058e-05
-0.00793465
0.114767
-0.00117633
-0.00791742
0.114767
-0.00231029
-0.00792071
0.114366
-0.00344468
-0.00794621
0.113565
-0.00457767
-0.00799537
0.11237
-0.00570473
-0.00806795
0.110785
-0.00681724
-0.00816052
0.108819
-0.00790146
-0.00826449
0.106478
-0.00893854
-0.00836515
0.103769
-0.00990457
-0.0084425
0.1007
-0.0107698
-0.00847304
0.0972728
-0.0114902
-0.00842956
0.0934837
-0.011966
-0.00827267
0.0892845
-0.0118447
-0.00790804
0.084424
-0.00961613
-0.00665869
0.0776538
-0.00418908
0.0653837
0.00933845
-0.00450844
0.0588303
0.0117167
-0.00722615
0.0707528
0.0119068
-0.00875041
0.0777649
0.0114281
-0.00918513
0.0828298
0.0106732
-0.00935998
0.0871802
0.00976389
-0.00940137
0.0910903
0.00875678
-0.00936581
0.0946201
0.00768936
-0.00928888
0.0977802
0.00658933
-0.00919524
0.100569
0.00547573
-0.00910136
0.10298
0.00436024
-0.00901696
0.105006
0.00324822
-0.00894569
0.10664
0.00214115
-0.00888824
0.107873
0.00103828
-0.00884415
0.108699
-6.22258e-05
-0.00881323
0.109113
-0.00116232
-0.0087963
0.109113
-0.00226444
-0.00879481
0.108699
-0.00337078
-0.00881119
0.107874
-0.00448285
-0.00884799
0.106643
-0.0055996
-0.00890727
0.105012
-0.00671521
-0.00898867
0.10299
-0.00781677
-0.00908659
0.100584
-0.00888279
-0.00918744
0.0977993
-0.00988266
-0.00926879
0.094641
-0.0107761
-0.0092992
0.0911088
-0.0115055
-0.00923751
0.0871908
-0.0119504
-0.00902555
0.0828269
-0.0117263
-0.00854042
0.0777468
-0.00932956
-0.00697536
0.0707262
-0.00426975
0.0588085
0.00897756
-0.00446832
0.0516525
0.0115482
-0.00732471
0.063105
0.0118586
-0.0091836
0.0703827
0.0114112
-0.00974026
0.0756952
0.0106409
-0.00996813
0.0802285
0.00969818
-0.0100285
0.0842787
0.00865717
-0.0100005
0.0879229
0.00756564
-0.00993337
0.091181
0.00645525
-0.00985649
0.0940558
0.00534489
-0.00978558
0.0965431
0.00424314
-0.00972654
0.0986354
0.00315194
-0.00967924
0.100324
0.00206961
-0.00964131
0.101599
0.000993552
-0.00961091
0.102453
-7.86262e-05
-0.00958739
0.102882
-0.00114943
-0.00957119
0.102881
-0.00222163
-0.00956381
0.102452
-0.0032989
-0.00956768
0.101597
-0.00438544
-0.00958607
0.100323
-0.00548438
-0.00962301
0.0986387
-0.0065949
-0.00968161
0.096552
-0.00770781
-0.00976133
0.0940718
-0.00880194
-0.00985283
0.0912045
-0.00984174
-0.00993409
0.0879523
-0.0107746
-0.00996728
0.0843098
-0.0115221
-0.00989421
0.0802543
-0.0119327
-0.00962936
0.075707
-0.0115771
-0.00901038
0.0703743
-0.00897312
-0.00708379
0.0630815
-0.00420486
0.0516322
0.00851137
-0.00430843
0.0440174
0.0113041
-0.00718366
0.0548339
0.011768
-0.00940937
0.0623764
0.0113627
-0.0101027
0.0679698
0.0105734
-0.01038
0.0727055
0.00959424
-0.0104561
0.0769041
0.00852416
-0.0104398
0.0806679
0.00742024
-0.0103933
0.084031
0.00631438
-0.0103474
0.0870014
0.0052208
-0.0103131
0.0895752
0.00414195
-0.0102899
0.0917434
0.0030747
-0.0102732
0.0934949
0.00201496
-0.0102587
0.094819
0.000959834
-0.0102442
0.0957065
-9.20221e-05
-0.0102292
0.0961511
-0.00114122
-0.0102143
0.0961497
-0.0021888
-0.0102008
0.0957027
-0.00323791
-0.0101905
0.0948138
-0.0042939
-0.0101865
0.0934901
-0.00536392
-0.0101933
0.0917415
-0.00645343
-0.0102173
0.0895793
-0.00756133
-0.0102632
0.0870144
-0.00867234
-0.0103296
0.084055
-0.00975025
-0.0104005
0.0807029
-0.0107314
-0.0104357
0.076947
-0.011509
-0.010361
0.0727487
-0.011882
-0.0100556
0.0680012
-0.0113654
-0.0092958
0.0623834
-0.00852132
-0.00697909
0.0548189
-0.00404013
0.0440026
0.00790999
-0.00406316
0.0360634
0.0109038
-0.00674593
0.0460505
0.0115705
-0.0093772
0.0538057
0.0112209
-0.0102071
0.0597118
0.010409
-0.0105207
0.064668
0.00939942
-0.0106149
0.0690206
0.00832073
-0.010627
0.0729109
0.00723356
-0.0106243
0.0763906
0.00616112
-0.0106309
0.079471
0.00510625
-0.0106485
0.082146
0.00406261
-0.0106698
0.0844032
0.00302276
-0.0106878
0.0862285
0.00198201
-0.0106982
0.0876091
0.000939584
-0.0106999
0.0885345
-0.000102363
-0.0106936
0.0889978
-0.00114008
-0.0106807
0.0889955
-0.00217088
-0.0106617
0.088528
-0.00319437
-0.0106375
0.0875994
-0.0042146
-0.0106096
0.0862175
-0.00524038
-0.0105814
0.0843935
-0.00628334
-0.0105598
0.0821412
-0.00735344
-0.0105535
0.0794754
-0.00844892
-0.0105701
0.0764083
-0.00954423
-0.0106047
0.0729445
-0.0105717
-0.0106254
0.0690694
-0.0113911
-0.0105517
0.0647255
-0.0117235
-0.0102288
0.0597634
-0.0110063
-0.00934079
0.0538323
-0.00794506
-0.00660978
0.0460516
-0.00382255
0.036056
0.00705087
-0.00365705
0.0279153
0.0102761
-0.00603237
0.0368914
0.0111734
-0.00895717
0.0447205
0.0108515
-0.00984876
0.0509296
0.0100065
-0.0101903
0.0561021
0.00899873
-0.0103429
0.0606119
0.00796909
-0.0104362
0.0646467
0.0069592
-0.0105236
0.0682698
0.00596949
-0.0106143
0.0714876
0.00498643
-0.0107012
0.0742873
0.00399586
-0.0107745
0.0766518
0.00298957
-0.0108295
0.0785643
0.00196623
-0.0108651
0.0800106
0.000930468
-0.010883
0.0809797
-0.000109399
-0.0108858
0.0814645
-0.00114384
-0.0108751
0.0814614
-0.00216371
-0.0108516
0.0809706
-0.00316273
-0.0108145
0.0799963
-0.00413989
-0.0107626
0.0785464
-0.00510086
-0.0106967
0.0766328
-0.00605981
-0.01062
0.0742707
-0.00703623
-0.0105407
0.0714781
-0.00804853
-0.0104701
0.068273
-0.00909715
-0.0104161
0.0646678
-0.0101357
-0.0103645
0.0606537
-0.0110111
-0.0102498
0.0561611
-0.011342
-0.00992338
0.0509915
-0.01041
-0.00899877
0.0447638
-0.00711867
-0.00598234
0.0369114
-0.0034882
0.0279193
0.00694549
-0.00426738
0.0199314
0.00966235
-0.00418879
0.0273663
0.0103519
-0.00754056
0.035221
0.0098742
-0.00842479
0.0414914
0.00904612
-0.00890759
0.046775
0.0081744
-0.00924503
0.0514501
0.00733058
-0.00951821
0.0556785
0.00650768
-0.00976042
0.0594958
0.00567711
-0.00997203
0.062894
0.00481303
-0.0101465
0.0658526
0.00390243
-0.0102815
0.0683502
0.00294404
-0.0103791
0.0703684
0.00194617
-0.0104446
0.0718933
0.000922071
-0.0104824
0.0729143
-0.00011226
-0.0104965
0.0734247
-0.00114006
-0.010489
0.0734213
-0.0021448
-0.0104602
0.0729042
-0.0031122
-0.0104082
0.071877
-0.00403154
-0.0103299
0.070347
-0.00489937
-0.0102216
0.0683253
-0.00572259
-0.0100802
0.0658266
-0.00652165
-0.00990646
0.0628705
-0.00732956
-0.00970618
0.05948
-0.00818092
-0.00948848
0.0556765
-0.00908465
-0.00925187
0.0514674
-0.0099596
-0.00895812
0.0468129
-0.0104787
-0.00850935
0.0415427
-0.00978757
-0.00763051
0.0352678
-0.00701964
-0.00422178
0.0273983
-0.00418469
0.0199434
0.00332848
-0.000319587
0.00974543
0.00546948
-0.00141655
0.0179764
0.00628661
-0.0048553
0.0249857
0.0062607
-0.00538377
0.0307706
0.00606984
-0.00594315
0.0359794
0.00581196
-0.00641796
0.0407929
0.00550956
-0.00685022
0.0452217
0.00513505
-0.00722342
0.0492425
0.00465945
-0.00753393
0.0528312
0.00406902
-0.00778201
0.0559604
0.00336899
-0.00797326
0.0586025
0.00257715
-0.00811499
0.0607364
0.0017174
-0.00821483
0.0623471
0.000814663
-0.00827729
0.063425
-0.000106197
-0.00830587
0.0639642
-0.00102023
-0.00830256
0.0639616
-0.00190288
-0.00826736
0.0634172
-0.00272988
-0.0081981
0.062334
-0.00347774
-0.0080914
0.060718
-0.00412504
-0.00794293
0.0585794
-0.00465954
-0.00774522
0.055934
-0.00508289
-0.00749312
0.0528037
-0.00541681
-0.00718398
0.0492167
-0.00570048
-0.0068197
0.0452022
-0.00596983
-0.0064061
0.0407857
-0.00620683
-0.00595618
0.035988
-0.0062957
-0.00542929
0.0307945
-0.0055275
-0.00492875
0.0250181
-0.00340698
-0.00146343
0.0180108
-0.000329005
0.00975903
-0.000126222
0.00756602
0.00251602
0.00977927
0.00228706
0.015011
0.00242272
0.0196055
0.00258255
0.0241672
0.0027265
0.0284824
0.00281191
0.0324851
0.00280163
0.0361617
0.00266567
0.0394866
0.00240462
0.0424093
0.00203458
0.0448916
0.00157765
0.0469059
0.00105711
0.0484317
0.000496603
0.0494556
-8.1111e-05
0.0499688
-0.000653868
0.0499671
-0.00119948
0.0494506
-0.00169491
0.0484234
-0.00211638
0.046894
-0.00244103
0.0448765
-0.00264825
0.0423922
-0.00272521
0.0394684
-0.00267717
0.0361428
-0.00254402
0.0324678
-0.0023749
0.0284691
-0.00222089
0.02416
-0.00213085
0.0196056
-0.0024392
0.015017
0.000146861
0.00978856
0.00757724
0.00102195
0.000194266
0.00634712
0.00204278
0.000234927
0.00852155
0.00258139
0.00110385
0.0133676
0.00302024
0.0016369
0.0175302
0.0032001
0.00236838
0.0216212
0.00315883
0.00306057
0.025467
0.00295801
0.0036621
0.0290288
0.00266724
0.00415859
0.0322995
0.00233526
0.00456424
0.0352599
0.00198831
0.00489849
0.0378631
0.00163535
0.00517539
0.0400743
0.00127568
0.00540135
0.0418687
0.000905888
0.00557721
0.0432283
0.000523629
0.00570008
0.0441412
0.000129068
0.00576625
0.0446002
-0.000276162
0.00577368
0.0446014
-0.000691172
0.00572315
0.0441448
-0.00111782
0.00561806
0.0432339
-0.00156119
0.00546308
0.0418758
-0.00202716
0.00526091
0.0400826
-0.00251727
0.00500965
0.0378731
-0.00301734
0.00469721
0.035271
-0.00348439
0.0042986
0.0323103
-0.00383642
0.00378008
0.029038
-0.00396119
0.00311788
0.0254738
-0.00375093
0.00232202
0.0216255
-0.00314682
0.0014671
0.0175325
-0.00234406
0.000844802
0.0133679
-0.00108721
1.15132e-05
0.00851924
0.000145997
0.006343
0.000466436
0.00109966
0.00836978
0.00195148
0.000917974