/*--------------------------------*- C++ -*----------------------------------*\
| =========                 |                                                 |
| \\      /  F ield         | OpenFOAM: The Open Source CFD Toolbox           |
|  \\    /   O peration     | Version:  2312                                  |
|   \\  /    A nd           | Website:  www.openfoam.com                      |
|    \\/     M anipulation  |                                                 |
\*---------------------------------------------------------------------------*/
FoamFile
{
    version     2.0;
    format      ascii;
    arch        "LSB;label=32;scalar=64";
    class       volScalarField;
    location    "700";
    object      T;
}
// * * * * * * * * * * * * * * * * * * * * * * * * * * * * * * * * * * * * * //

dimensions      [0 0 0 1 0 0 0];

internalField   nonuniform List<scalar> 
27000
(
425.593
355.456
347.002
342.986
342.393
342.553
342.816
343.082
343.336
343.551
343.722
343.854
343.953
344.021
344.055
344.057
344.028
343.965
343.872
343.744
343.576
343.362
343.105
342.829
342.548
342.355
342.896
346.838
355.203
425.078
335.955
354.276
348.206
346.636
346.441
346.733
347.057
347.316
347.513
347.66
347.768
347.846
347.901
347.938
347.959
347.963
347.952
347.924
347.876
347.803
347.697
347.544
347.333
347.048
346.683
346.337
346.477
348.006
354.071
335.969
342.456
345.659
348.112
347.871
347.759
347.853
348.019
348.174
348.297
348.388
348.454
348.501
348.533
348.555
348.568
348.573
348.569
348.555
348.528
348.483
348.414
348.312
348.169
347.985
347.782
347.653
347.743
347.995
345.611
342.479
342.389
346.229
347.79
348.077
348.095
348.139
348.231
348.337
348.434
348.513
348.574
348.618
348.65
348.671
348.683
348.687
348.683
348.668
348.639
348.594
348.527
348.435
348.319
348.189
348.075
348.017
348.001
347.739
346.223
342.417
342.819
346.799
347.996
348.213
348.256
348.283
348.335
348.406
348.48
348.548
348.605
348.649
348.681
348.703
348.716
348.719
348.713
348.695
348.664
348.618
348.554
348.475
348.385
348.3
348.239
348.21
348.178
347.986
346.82
342.854
343.249
347.197
348.177
348.343
348.374
348.389
348.417
348.463
348.517
348.573
348.623
348.664
348.696
348.718
348.73
348.733
348.725
348.707
348.675
348.631
348.576
348.512
348.448
348.396
348.365
348.356
348.34
348.195
347.237
343.29
343.648
347.472
348.299
348.439
348.464
348.472
348.488
348.517
348.557
348.6
348.643
348.68
348.709
348.73
348.742
348.744
348.736
348.718
348.689
348.65
348.603
348.555
348.511
348.481
348.469
348.47
348.458
348.336
347.523
343.69
343.984
347.664
348.377
348.503
348.529
348.536
348.547
348.567
348.596
348.63
348.666
348.698
348.725
348.744
348.755
348.757
348.749
348.732
348.706
348.673
348.636
348.6
348.571
348.553
348.548
348.551
348.538
348.425
347.719
344.024
344.266
347.798
348.426
348.543
348.571
348.581
348.592
348.608
348.632
348.66
348.69
348.718
348.742
348.76
348.77
348.772
348.765
348.75
348.727
348.7
348.67
348.643
348.621
348.609
348.605
348.604
348.586
348.478
347.852
344.3
344.498
347.893
348.455
348.565
348.597
348.611
348.624
348.641
348.662
348.687
348.714
348.739
348.76
348.776
348.785
348.787
348.781
348.768
348.749
348.726
348.701
348.678
348.661
348.649
348.643
348.636
348.611
348.506
347.942
344.526
344.681
347.96
348.471
348.575
348.61
348.629
348.646
348.664
348.686
348.71
348.734
348.757
348.777
348.792
348.801
348.802
348.797
348.786
348.769
348.748
348.727
348.706
348.689
348.676
348.665
348.651
348.621
348.518
348.002
344.704
344.819
348.005
348.478
348.578
348.616
348.639
348.659
348.68
348.703
348.727
348.751
348.773
348.792
348.806
348.814
348.816
348.811
348.801
348.785
348.767
348.746
348.726
348.708
348.691
348.675
348.656
348.621
348.521
348.042
344.839
344.918
348.034
348.48
348.577
348.616
348.643
348.666
348.69
348.714
348.739
348.763
348.785
348.803
348.817
348.825
348.827
348.822
348.813
348.798
348.78
348.76
348.739
348.719
348.699
348.679
348.656
348.618
348.52
348.067
344.935
344.981
348.052
348.48
348.575
348.615
348.644
348.67
348.695
348.721
348.747
348.771
348.793
348.811
348.824
348.832
348.834
348.83
348.82
348.806
348.788
348.768
348.746
348.724
348.702
348.679
348.653
348.613
348.517
348.082
344.997
345.012
348.06
348.48
348.573
348.614
348.644
348.671
348.697
348.724
348.75
348.775
348.797
348.815
348.828
348.835
348.837
348.833
348.824
348.81
348.792
348.771
348.749
348.726
348.702
348.678
348.65
348.61
348.514
348.088
345.027
345.012
348.06
348.479
348.573
348.614
348.643
348.67
348.697
348.724
348.75
348.775
348.796
348.814
348.827
348.835
348.837
348.832
348.823
348.809
348.79
348.77
348.747
348.724
348.701
348.676
348.649
348.608
348.513
348.088
345.027
344.981
348.052
348.479
348.574
348.614
348.643
348.668
348.694
348.72
348.746
348.77
348.792
348.81
348.823
348.83
348.832
348.827
348.818
348.803
348.785
348.764
348.742
348.719
348.697
348.674
348.648
348.609
348.513
348.08
344.996
344.917
348.034
348.479
348.576
348.615
348.641
348.664
348.688
348.712
348.737
348.761
348.783
348.801
348.814
348.822
348.823
348.819
348.808
348.793
348.774
348.753
348.731
348.71
348.691
348.671
348.648
348.611
348.514
348.063
344.934
344.819
348.004
348.477
348.576
348.614
348.636
348.656
348.677
348.7
348.724
348.748
348.77
348.789
348.803
348.811
348.812
348.806
348.795
348.778
348.758
348.737
348.715
348.696
348.679
348.663
348.645
348.611
348.512
348.036
344.836
344.68
347.959
348.469
348.573
348.607
348.626
348.642
348.66
348.681
348.705
348.73
348.754
348.774
348.788
348.797
348.798
348.791
348.778
348.76
348.738
348.715
348.693
348.674
348.66
348.649
348.636
348.606
348.506
347.993
344.7
344.498
347.893
348.454
348.562
348.593
348.606
348.619
348.635
348.656
348.682
348.709
348.735
348.756
348.772
348.781
348.782
348.775
348.76
348.739
348.714
348.687
348.663
348.643
348.63
348.623
348.616
348.592
348.49
347.93
344.52
344.267
347.799
348.425
348.539
348.566
348.575
348.584
348.601
348.625
348.654
348.685
348.714
348.738
348.756
348.765
348.766
348.758
348.741
348.717
348.687
348.655
348.625
348.601
348.587
348.582
348.58
348.563
348.457
347.836
344.292
343.986
347.665
348.375
348.498
348.521
348.527
348.537
348.557
348.588
348.623
348.66
348.694
348.721
348.74
348.751
348.752
348.743
348.724
348.695
348.66
348.62
348.581
348.549
348.529
348.522
348.523
348.51
348.4
347.699
344.014
343.651
347.472
348.294
348.43
348.453
348.46
348.476
348.506
348.547
348.593
348.637
348.676
348.706
348.727
348.738
348.74
348.73
348.71
348.678
348.636
348.587
348.536
348.489
348.455
348.44
348.439
348.427
348.306
347.5
343.678
343.252
347.196
348.169
348.33
348.359
348.373
348.402
348.45
348.508
348.566
348.618
348.661
348.694
348.716
348.728
348.729
348.72
348.699
348.666
348.619
348.56
348.493
348.426
348.37
348.336
348.324
348.305
348.161
347.21
343.275
342.82
346.795
347.983
348.194
348.235
348.263
348.318
348.392
348.471
348.542
348.602
348.647
348.68
348.702
348.714
348.716
348.708
348.689
348.656
348.607
348.54
348.458
348.365
348.277
348.211
348.177
348.142
347.948
346.789
342.836
342.39
346.22
347.769
348.05
348.069
348.116
348.213
348.324
348.426
348.509
348.572
348.618
348.65
348.671
348.683
348.686
348.679
348.663
348.632
348.584
348.515
348.42
348.302
348.169
348.051
347.988
347.966
347.699
346.188
342.395
342.455
345.642
348.078
347.834
347.728
347.83
348.004
348.166
348.293
348.387
348.455
348.503
348.536
348.557
348.569
348.572
348.567
348.552
348.523
348.476
348.404
348.3
348.156
347.969
347.765
347.631
347.715
347.956
345.57
342.451
335.954
354.225
348.156
346.596
346.412
346.716
347.048
347.313
347.514
347.663
347.772
347.85
347.905
347.941
347.96
347.964
347.952
347.922
347.873
347.798
347.69
347.536
347.324
347.039
346.674
346.328
346.464
347.982
354.027
335.932
425.465
355.396
346.963
342.963
342.381
342.548
342.815
343.084
343.338
343.554
343.724
343.856
343.955
344.022
344.056
344.058
344.028
343.965
343.871
343.743
343.574
343.359
343.102
342.826
342.545
342.353
342.895
346.834
355.188
424.996
449.748
364.693
348.603
339.723
336.785
335.955
335.799
335.884
336.069
336.28
336.48
336.648
336.772
336.852
336.89
336.884
336.836
336.744
336.607
336.427
336.22
336.007
335.826
335.763
335.972
336.901
339.983
349.025
365.262
450.821
331.891
361.899
353.075
347.712
344.609
343.44
343.189
343.275
343.466
343.676
343.867
344.024
344.139
344.212
344.244
344.235
344.186
344.095
343.963
343.793
343.595
343.392
343.229
343.202
343.554
344.85
348.066
353.47
362.28
331.863
336.807
343.655
349.701
349.267
347.938
347.036
346.604
346.436
346.389
346.396
346.424
346.457
346.485
346.502
346.507
346.497
346.474
346.439
346.397
346.358
346.333
346.346
346.435
346.671
347.19
348.172
349.534
349.931
343.766
336.807
335.796
341.688
346.317
348.024
348.128
347.831
347.549
347.354
347.231
347.155
347.109
347.083
347.068
347.058
347.049
347.041
347.033
347.03
347.037
347.062
347.118
347.219
347.383
347.629
347.964
348.292
348.18
346.416
341.715
335.768
336.133
342.006
345.753
347.288
347.762
347.799
347.695
347.569
347.457
347.367
347.3
347.252
347.219
347.197
347.183
347.177
347.178
347.191
347.22
347.271
347.35
347.461
347.603
347.76
347.887
347.854
347.358
345.773
341.969
336.072
336.473
342.719
345.932
347.097
347.521
347.645
347.635
347.571
347.49
347.413
347.346
347.293
347.254
347.227
347.211
347.206
347.213
347.234
347.271
347.328
347.405
347.498
347.596
347.675
347.69
347.556
347.104
345.895
342.639
336.396
336.863
343.33
346.169
347.081
347.406
347.524
347.545
347.514
347.459
347.397
347.338
347.287
347.247
347.219
347.203
347.199
347.209
347.232
347.271
347.325
347.391
347.462
347.525
347.559
347.533
347.399
347.045
346.097
343.231
336.78
337.298
343.83
346.366
347.106
347.354
347.446
347.467
347.45
347.409
347.359
347.308
347.261
347.223
347.196
347.181
347.178
347.188
347.212
347.249
347.296
347.351
347.404
347.445
347.46
347.428
347.318
347.044
346.277
343.728
337.22
337.705
344.24
346.531
347.145
347.334
347.399
347.411
347.394
347.359
347.316
347.271
347.228
347.193
347.168
347.153
347.151
347.161
347.183
347.216
347.258
347.303
347.345
347.376
347.386
347.362
347.281
347.071
346.441
344.148
337.64
338.056
344.573
346.671
347.191
347.334
347.374
347.373
347.351
347.316
347.276
347.234
347.195
347.162
347.138
347.125
347.123
347.132
347.152
347.182
347.219
347.258
347.295
347.324
347.338
347.327
347.274
347.116
346.587
344.495
338.006
338.352
344.836
346.788
347.238
347.347
347.365
347.35
347.321
347.283
347.243
347.202
347.165
347.134
347.112
347.099
347.097
347.105
347.124
347.151
347.184
347.221
347.257
347.288
347.309
347.314
347.285
347.168
346.714
344.772
338.312
338.588
345.038
346.882
347.282
347.364
347.365
347.339
347.302
347.26
347.217
347.177
347.141
347.111
347.089
347.077
347.075
347.083
347.1
347.126
347.157
347.193
347.23
347.265
347.295
347.314
347.306
347.218
346.818
344.986
338.556
338.764
345.184
346.951
347.318
347.382
347.37
347.334
347.291
347.245
347.2
347.159
347.122
347.093
347.072
347.06
347.058
347.066
347.082
347.107
347.138
347.175
347.214
347.253
347.291
347.321
347.327
347.261
346.897
345.141
338.738
338.881
345.279
346.998
347.344
347.396
347.376
347.334
347.285
347.236
347.19
347.147
347.111
347.082
347.061
347.049
347.047
347.054
347.071
347.095
347.127
347.164
347.205
347.248
347.291
347.329
347.345
347.291
346.949
345.242
338.859
338.94
345.327
347.022
347.357
347.404
347.38
347.335
347.284
347.233
347.185
347.142
347.106
347.077
347.056
347.045
347.042
347.05
347.066
347.091
347.122
347.16
347.202
347.248
347.294
347.335
347.356
347.308
346.976
345.292
338.919
338.94
345.327
347.023
347.358
347.405
347.381
347.336
347.285
347.234
347.186
347.144
347.107
347.078
347.057
347.046
347.044
347.051
347.068
347.093
347.125
347.163
347.205
347.251
347.297
347.337
347.358
347.31
346.978
345.293
338.919
338.883
345.281
347
347.346
347.399
347.379
347.337
347.289
347.24
347.193
347.151
347.114
347.085
347.065
347.053
347.051
347.059
347.076
347.101
347.133
347.171
347.213
347.257
347.3
347.337
347.353
347.298
346.954
345.244
338.86
338.766
345.186
346.955
347.322
347.386
347.375
347.34
347.296
347.25
347.206
347.164
347.128
347.099
347.078
347.066
347.065
347.073
347.091
347.117
347.149
347.187
347.227
347.267
347.305
347.335
347.341
347.272
346.905
345.146
338.74
338.589
345.04
346.885
347.287
347.37
347.372
347.346
347.309
347.268
347.225
347.184
347.148
347.118
347.097
347.085
347.083
347.093
347.111
347.139
347.172
347.21
347.248
347.285
347.316
347.334
347.325
347.235
346.832
344.994
338.56
338.353
344.838
346.792
347.243
347.354
347.373
347.36
347.331
347.293
347.252
347.211
347.173
347.142
347.12
347.108
347.107
347.117
347.137
347.167
347.202
347.241
347.279
347.312
347.335
347.341
347.312
347.192
346.734
344.785
338.318
338.057
344.573
346.674
347.197
347.343
347.385
347.385
347.363
347.328
347.287
347.244
347.204
347.171
347.147
347.134
347.133
347.144
347.167
347.199
347.239
347.281
347.321
347.353
347.369
347.361
347.307
347.147
346.614
344.513
338.015
337.703
344.239
346.534
347.152
347.345
347.412
347.425
347.408
347.372
347.328
347.281
347.237
347.202
347.176
347.162
347.161
347.173
347.198
347.234
347.279
347.328
347.374
347.409
347.423
347.402
347.322
347.111
346.476
344.173
337.653
337.294
343.827
346.37
347.116
347.369
347.463
347.485
347.466
347.424
347.371
347.318
347.27
347.231
347.203
347.189
347.187
347.2
347.226
347.266
347.318
347.376
347.434
347.481
347.5
347.473
347.366
347.093
346.322
343.761
337.238
336.858
343.327
346.176
347.096
347.427
347.546
347.566
347.533
347.475
347.409
347.347
347.293
347.252
347.224
347.209
347.207
347.219
347.246
347.288
347.346
347.416
347.492
347.56
347.6
347.581
347.453
347.101
346.15
343.27
336.804
336.469
342.718
345.945
347.12
347.549
347.673
347.66
347.591
347.505
347.423
347.352
347.297
347.256
347.229
347.214
347.211
347.221
347.245
347.286
347.346
347.428
347.525
347.629
347.715
347.738
347.613
347.167
345.956
342.685
336.426
336.132
342.013
345.775
347.321
347.799
347.834
347.724
347.589
347.469
347.373
347.302
347.252
347.218
347.196
347.184
347.179
347.183
347.199
347.232
347.286
347.369
347.485
347.631
347.795
347.931
347.909
347.423
345.842
342.025
336.109
335.801
341.706
346.352
348.072
348.177
347.872
347.578
347.371
347.238
347.155
347.105
347.077
347.062
347.053
347.046
347.04
347.035
347.035
347.045
347.074
347.134
347.238
347.405
347.656
347.996
348.336
348.24
346.489
341.783
335.815
336.817
343.688
349.761
349.335
347.998
347.078
346.628
346.445
346.388
346.389
346.415
346.447
346.475
346.494
346.501
346.493
346.472
346.44
346.402
346.366
346.345
346.361
346.451
346.688
347.208
348.196
349.575
349.994
343.842
336.868
331.889
361.986
353.167
347.794
344.667
343.471
343.199
343.273
343.457
343.663
343.855
344.013
344.129
344.204
344.238
344.231
344.183
344.095
343.965
343.797
343.602
343.402
343.239
343.212
343.561
344.856
348.077
353.501
362.346
331.934
449.99
364.819
348.696
339.781
336.814
335.964
335.797
335.876
336.06
336.271
336.471
336.64
336.766
336.847
336.885
336.881
336.834
336.743
336.607
336.429
336.223
336.011
335.832
335.77
335.978
336.901
339.977
349.019
365.275
450.934
443.037
360.687
345.469
336.923
334.212
333.542
333.477
333.566
333.692
333.804
333.893
333.965
334.021
334.062
334.086
334.093
334.082
334.055
334.013
333.954
333.874
333.766
333.634
333.517
333.516
334.062
336.577
344.898
359.911
441.593
332.565
359.683
351.605
345.865
342.237
340.831
340.625
340.881
341.248
341.591
341.874
342.092
342.252
342.359
342.416
342.426
342.387
342.3
342.158
341.954
341.679
341.328
340.929
340.603
340.695
341.952
345.443
351.126
359.198
332.595
336.253
343.394
349.339
348.709
346.771
345.475
345.092
345.228
345.529
345.829
346.073
346.254
346.381
346.463
346.508
346.518
346.492
346.428
346.316
346.142
345.895
345.573
345.224
345.008
345.288
346.49
348.388
349.06
343.251
336.22
334.168
340.405
345.521
347.779
347.91
347.503
347.295
347.341
347.513
347.708
347.874
348
348.087
348.144
348.175
348.184
348.17
348.128
348.051
347.926
347.747
347.521
347.3
347.19
347.333
347.702
347.586
345.396
340.35
334.161
334.227
340.088
344.433
346.961
347.912
348.095
348.111
348.17
348.288
348.425
348.551
348.65
348.722
348.77
348.796
348.803
348.789
348.752
348.684
348.58
348.44
348.275
348.121
348.023
347.977
347.789
346.868
344.399
340.108
334.285
334.45
340.708
344.75
346.997
347.958
348.308
348.442
348.534
348.634
348.741
348.842
348.927
348.991
349.034
349.058
349.063
349.048
349.01
348.947
348.857
348.743
348.616
348.494
348.384
348.243
347.906
346.979
344.785
340.786
334.536
334.641
341.402
345.4
347.337
348.132
348.469
348.629
348.732
348.823
348.913
348.997
349.07
349.127
349.167
349.188
349.191
349.176
349.139
349.082
349.005
348.911
348.81
348.709
348.601
348.448
348.134
347.373
345.48
341.513
334.739
334.807
341.988
345.946
347.658
348.325
348.616
348.765
348.864
348.947
349.025
349.096
349.159
349.21
349.245
349.265
349.267
349.251
349.218
349.168
349.102
349.026
348.944
348.86
348.765
348.629
348.363
347.727
346.046
342.106
334.899
334.963
342.461
346.329
347.885
348.477
348.734
348.87
348.962
349.037
349.105
349.168
349.222
349.267
349.298
349.315
349.317
349.303
349.274
349.23
349.176
349.113
349.045
348.974
348.891
348.77
348.536
347.97
346.432
342.57
335.043
335.11
342.837
346.589
348.03
348.575
348.815
348.946
349.034
349.104
349.166
349.221
349.269
349.308
349.336
349.352
349.353
349.341
349.316
349.279
349.232
349.179
349.121
349.058
348.98
348.864
348.643
348.116
346.685
342.929
335.176
335.242
343.13
346.764
348.116
348.631
348.865
348.996
349.084
349.152
349.21
349.261
349.305
349.34
349.365
349.379
349.381
349.37
349.348
349.316
349.275
349.229
349.176
349.115
349.038
348.92
348.7
348.196
346.848
343.205
335.295
335.353
343.352
346.88
348.165
348.66
348.892
349.025
349.115
349.184
349.241
349.289
349.33
349.363
349.387
349.4
349.401
349.392
349.372
349.343
349.307
349.263
349.213
349.152
349.071
348.948
348.725
348.237
346.951
343.413
335.397
335.441
343.511
346.955
348.191
348.673
348.905
349.041
349.134
349.204
349.261
349.308
349.348
349.379
349.402
349.414
349.416
349.407
349.389
349.362
349.327
349.285
349.235
349.172
349.087
348.959
348.734
348.255
347.016
343.562
335.477
335.501
343.614
346.999
348.203
348.676
348.909
349.047
349.142
349.214
349.272
349.319
349.358
349.389
349.41
349.422
349.424
349.416
349.399
349.373
349.339
349.297
349.246
349.181
349.093
348.96
348.733
348.262
347.053
343.657
335.532
335.531
343.662
347.018
348.207
348.676
348.908
349.048
349.144
349.217
349.275
349.323
349.362
349.392
349.413
349.425
349.427
349.419
349.402
349.376
349.342
349.3
349.248
349.182
349.092
348.958
348.73
348.262
347.069
343.703
335.56
335.53
343.661
347.016
348.204
348.673
348.905
349.045
349.141
349.214
349.272
349.32
349.359
349.389
349.41
349.422
349.424
349.416
349.398
349.372
349.338
349.295
349.243
349.177
349.087
348.952
348.725
348.257
347.065
343.701
335.558
335.497
343.609
346.992
348.196
348.668
348.899
349.038
349.133
349.205
349.262
349.31
349.349
349.38
349.402
349.413
349.415
349.406
349.388
349.361
349.326
349.283
349.231
349.165
349.077
348.945
348.719
348.249
347.043
343.651
335.528
335.435
343.504
346.945
348.179
348.659
348.89
349.026
349.118
349.189
349.246
349.294
349.334
349.365
349.388
349.399
349.401
349.391
349.372
349.343
349.307
349.263
349.211
349.147
349.061
348.933
348.709
348.233
346.998
343.55
335.469
335.346
343.342
346.867
348.149
348.642
348.872
349.005
349.095
349.164
349.221
349.27
349.312
349.345
349.368
349.381
349.381
349.371
349.349
349.318
349.279
349.233
349.18
349.117
349.035
348.911
348.69
348.205
346.926
343.395
335.385
335.233
343.119
346.749
348.096
348.608
348.84
348.97
349.058
349.127
349.186
349.238
349.282
349.318
349.343
349.357
349.357
349.345
349.321
349.286
349.242
349.192
349.136
349.072
348.992
348.872
348.653
348.154
346.813
343.18
335.278
335.102
342.827
346.573
348.008
348.548
348.785
348.915
349.004
349.075
349.138
349.195
349.245
349.285
349.313
349.327
349.328
349.313
349.285
349.245
349.195
349.138
349.075
349.007
348.926
348.807
348.585
348.061
346.639
342.895
335.153
334.955
342.452
346.311
347.86
348.445
348.699
348.836
348.929
349.006
349.076
349.141
349.197
349.242
349.274
349.29
349.291
349.274
349.242
349.195
349.136
349.069
348.996
348.918
348.829
348.703
348.466
347.902
346.373
342.526
335.013
334.8
341.979
345.926
347.627
348.288
348.576
348.727
348.828
348.914
348.995
349.07
349.136
349.187
349.223
349.241
349.241
349.224
349.187
349.133
349.063
348.982
348.894
348.802
348.7
348.556
348.284
347.647
345.974
342.051
334.861
334.634
341.389
345.375
347.299
348.088
348.424
348.587
348.694
348.791
348.886
348.974
349.049
349.107
349.147
349.167
349.169
349.15
349.111
349.05
348.968
348.869
348.762
348.652
348.536
348.372
348.048
347.283
345.397
341.446
334.692
334.439
340.687
344.715
346.949
347.906
348.258
348.398
348.498
348.605
348.719
348.824
348.911
348.976
349.019
349.041
349.044
349.026
348.985
348.918
348.824
348.705
348.573
348.443
348.324
348.171
347.819
346.883
344.692
340.708
334.481
334.209
340.054
344.386
346.903
347.852
348.041
348.068
348.138
348.265
348.41
348.54
348.642
348.714
348.76
348.785
348.789
348.772
348.732
348.661
348.553
348.409
348.24
348.081
347.975
347.917
347.711
346.773
344.298
340.018
334.219
334.136
340.358
345.46
347.708
347.843
347.449
347.258
347.318
347.501
347.703
347.873
347.999
348.086
348.14
348.169
348.176
348.159
348.114
348.033
347.906
347.723
347.495
347.271
347.159
347.295
347.648
347.508
345.297
340.249
334.081
336.216
343.336
349.256
348.624
346.7
345.427
345.066
345.218
345.53
345.834
346.08
346.26
346.385
346.465
346.507
346.515
346.487
346.42
346.305
346.128
345.878
345.554
345.205
344.992
345.271
346.467
348.346
348.984
343.148
336.127
332.559
359.566
351.492
345.77
342.172
340.797
340.614
340.884
341.258
341.604
341.886
342.102
342.259
342.364
342.419
342.427
342.386
342.296
342.152
341.946
341.667
341.314
340.914
340.59
340.688
341.951
345.441
351.103
359.128
332.484
442.705
360.518
345.349
336.85
334.177
333.531
333.479
333.574
333.702
333.813
333.902
333.972
334.026
334.065
334.087
334.093
334.081
334.053
334.009
333.948
333.866
333.755
333.622
333.504
333.507
334.062
336.593
344.926
359.93
441.486
446.141
363.558
348.107
338.398
334.147
332.235
331.365
330.989
330.858
330.832
330.848
330.877
330.905
330.923
330.929
330.921
330.898
330.863
330.821
330.78
330.757
330.786
330.946
331.388
332.384
334.5
339.027
349.01
364.682
448.179
330.559
360.012
353.026
347.406
342.879
340.12
338.685
338.064
337.888
337.928
338.054
338.196
338.318
338.402
338.44
338.428
338.368
338.262
338.121
337.968
337.843
337.827
338.066
338.8
340.396
343.336
348.007
353.672
360.687
330.493
335.12
342.62
349.383
349.365
347.271
345.072
343.531
342.68
342.322
342.255
342.33
342.452
342.57
342.653
342.69
342.677
342.613
342.504
342.368
342.239
342.178
342.288
342.728
343.697
345.366
347.662
349.783
349.74
342.795
335.154
332.493
338.945
344.474
347.427
347.899
347.167
346.244
345.556
345.163
344.99
344.949
344.967
345.001
345.027
345.036
345.025
344.993
344.947
344.898
344.877
344.939
345.162
345.634
346.415
347.414
348.176
347.673
344.637
339.028
332.529
331.901
337.727
342.332
345.526
347.094
347.403
347.141
346.76
346.446
346.237
346.115
346.049
346.014
345.994
345.982
345.975
345.972
345.981
346.011
346.084
346.23
346.481
346.851
347.286
347.58
347.263
345.646
342.387
337.726
331.853
331.775
337.648
341.769
344.706
346.416
347.086
347.183
347.044
346.851
346.68
346.549
346.458
346.397
346.359
346.338
346.333
346.345
346.379
346.442
346.544
346.695
346.896
347.122
347.285
347.191
346.491
344.729
341.734
337.571
331.677
331.809
337.95
341.919
344.614
346.139
346.811
347.027
347.02
346.924
346.805
346.697
346.609
346.544
346.502
346.479
346.476
346.495
346.536
346.604
346.701
346.824
346.959
347.071
347.081
346.851
346.139
344.56
341.816
337.824
331.695
331.922
338.369
342.323
344.822
346.102
346.667
346.886
346.931
346.889
346.813
346.73
346.655
346.596
346.555
346.534
346.532
346.552
346.592
346.655
346.735
346.826
346.909
346.952
346.899
346.656
346.05
344.717
342.183
338.226
331.809
332.078
338.813
342.786
345.103
346.163
346.614
346.798
346.85
346.833
346.782
346.719
346.657
346.605
346.568
346.549
346.548
346.566
346.603
346.656
346.72
346.785
346.836
346.847
346.78
346.571
346.082
344.978
342.639
338.675
331.974
332.245
339.236
343.227
345.37
346.255
346.611
346.753
346.795
346.783
346.744
346.692
346.64
346.595
346.563
346.545
346.544
346.561
346.592
346.637
346.688
346.737
346.772
346.773
346.715
346.55
346.165
345.248
343.09
339.116
332.155
332.4
339.611
343.609
345.595
346.349
346.632
346.736
346.762
346.747
346.711
346.665
346.619
346.579
346.549
346.533
346.532
346.546
346.574
346.612
346.654
346.695
346.724
346.728
346.687
346.564
346.26
345.485
343.492
339.51
332.324
332.531
339.918
343.916
345.773
346.435
346.664
346.737
346.746
346.724
346.686
346.642
346.599
346.562
346.535
346.52
346.519
346.531
346.555
346.588
346.627
346.664
346.694
346.705
346.682
346.594
346.35
345.678
343.819
339.835
332.467
332.632
340.151
344.143
345.908
346.505
346.696
346.746
346.741
346.712
346.671
346.626
346.584
346.549
346.523
346.508
346.507
346.518
346.54
346.571
346.608
346.645
346.677
346.697
346.69
346.628
346.426
345.823
344.061
340.083
332.579
332.702
340.309
344.291
345.998
346.557
346.723
346.758
346.743
346.707
346.663
346.618
346.576
346.541
346.515
346.501
346.5
346.51
346.531
346.561
346.598
346.636
346.671
346.697
346.702
346.657
346.482
345.921
344.219
340.25
332.655
332.739
340.39
344.365
346.045
346.585
346.74
346.767
346.747
346.708
346.662
346.616
346.574
346.539
346.514
346.5
346.498
346.508
346.529
346.559
346.596
346.635
346.673
346.703
346.713
346.677
346.515
345.972
344.299
340.336
332.695
332.742
340.394
344.369
346.05
346.591
346.746
346.773
346.753
346.714
346.667
346.621
346.579
346.544
346.518
346.505
346.503
346.513
346.535
346.565
346.602
346.642
346.68
346.71
346.721
346.685
346.523
345.979
344.304
340.339
332.697
332.709
340.318
344.302
346.012
346.572
346.739
346.774
346.759
346.723
346.678
346.632
346.59
346.554
346.529
346.515
346.514
346.525
346.547
346.578
346.616
346.656
346.693
346.72
346.726
346.681
346.506
345.941
344.234
340.261
332.663
332.644
340.166
344.16
345.93
346.53
346.722
346.772
346.767
346.737
346.695
346.649
346.607
346.57
346.544
346.53
346.53
346.542
346.566
346.599
346.638
346.678
346.713
346.735
346.73
346.668
346.465
345.857
344.087
340.103
332.594
332.546
339.937
343.938
345.802
346.468
346.699
346.772
346.781
346.758
346.718
346.673
346.629
346.591
346.564
346.549
346.549
346.562
346.589
346.625
346.667
346.709
346.742
346.757
346.738
346.651
346.406
345.728
343.858
339.866
332.491
332.419
339.633
343.635
345.629
346.391
346.676
346.781
346.805
346.788
346.75
346.702
346.654
346.613
346.584
346.568
346.568
346.584
346.614
346.656
346.703
346.749
346.783
346.793
346.758
346.638
346.334
345.553
343.546
339.553
332.356
332.266
339.261
343.255
345.409
346.303
346.663
346.805
346.845
346.831
346.788
346.734
346.68
346.634
346.601
346.584
346.584
346.603
346.637
346.686
346.742
346.797
346.839
346.849
346.799
346.64
346.257
345.334
343.163
339.174
332.197
332.101
338.84
342.818
345.147
346.218
346.674
346.857
346.906
346.885
346.83
346.762
346.698
346.645
346.607
346.589
346.589
346.61
346.65
346.707
346.777
346.849
346.908
346.93
346.874
346.675
346.192
345.085
342.732
338.751
332.029
331.948
338.401
342.363
344.875
346.167
346.735
346.952
346.99
346.943
346.861
346.773
346.695
346.634
346.593
346.572
346.573
346.595
346.639
346.705
346.791
346.889
346.981
347.036
346.998
346.771
346.176
344.845
342.299
338.322
331.879
331.839
337.991
341.972
344.681
346.215
346.887
347.096
347.081
346.975
346.85
346.736
346.645
346.578
346.536
346.514
346.514
346.535
346.579
346.651
346.753
346.882
347.026
347.15
347.178
346.968
346.276
344.706
341.953
337.941
331.781
331.811
337.704
341.841
344.79
346.503
347.168
347.252
347.101
346.897
346.716
346.58
346.486
346.424
346.387
346.368
346.365
346.38
346.417
346.483
346.588
346.744
346.952
347.188
347.368
347.299
346.628
344.885
341.89
337.709
331.778
331.952
337.802
342.423
345.624
347.188
347.485
347.205
346.806
346.478
346.259
346.133
346.066
346.031
346.014
346.005
346
346
346.012
346.045
346.119
346.267
346.521
346.896
347.345
347.663
347.381
345.797
342.554
337.882
331.972
332.566
339.039
344.582
347.536
347.996
347.244
346.297
345.587
345.176
344.994
344.949
344.969
345.006
345.036
345.049
345.041
345.012
344.968
344.921
344.902
344.964
345.187
345.66
346.444
347.458
348.253
347.795
344.8
339.2
332.669
335.196
342.729
349.512
349.484
347.368
345.141
343.572
342.697
342.324
342.249
342.321
342.445
342.566
342.653
342.694
342.684
342.623
342.518
342.385
342.259
342.2
342.309
342.745
343.707
345.375
347.684
349.843
349.863
342.971
335.315
330.619
360.202
353.181
347.536
342.973
340.179
338.714
338.072
337.885
337.921
338.047
338.191
338.316
338.403
338.443
338.435
338.377
338.274
338.137
337.987
337.865
337.85
338.085
338.81
340.391
343.318
347.994
353.7
360.804
330.705
446.649
363.787
348.28
338.515
334.215
332.269
331.378
330.991
330.854
330.828
330.845
330.875
330.904
330.925
330.933
330.927
330.907
330.874
330.834
330.796
330.777
330.809
330.969
331.406
332.387
334.478
338.972
348.938
364.628
448.346
433.667
356.374
342.85
335.103
332.518
331.66
331.377
331.305
331.313
331.34
331.365
331.387
331.405
331.42
331.43
331.437
331.438
331.435
331.427
331.412
331.387
331.352
331.319
331.348
331.541
332.227
334.52
341.904
355.076
431.198
331.948
356.05
349.108
343.958
340.454
338.756
338.134
338.028
338.13
338.29
338.448
338.583
338.688
338.762
338.803
338.811
338.786
338.727
338.635
338.508
338.346
338.161
338.005
338.014
338.487
339.985
343.29
348.336
355.221
331.932
335.522
342.244
347.64
347.158
345.257
343.623
342.716
342.4
342.418
342.574
342.762
342.931
343.065
343.159
343.211
343.221
343.188
343.112
342.989
342.822
342.622
342.424
342.327
342.526
343.295
344.805
346.649