/*--------------------------------*- C++ -*----------------------------------*\
| =========                 |                                                 |
| \\      /  F ield         | OpenFOAM: The Open Source CFD Toolbox           |
|  \\    /   O peration     | Version:  2312                                  |
|   \\  /    A nd           | Website:  www.openfoam.com                      |
|    \\/     M anipulation  |                                                 |
\*---------------------------------------------------------------------------*/
FoamFile
{
    version     2.0;
    format      ascii;
    arch        "LSB;label=32;scalar=64";
    class       volVectorField;
    location    "700";
    object      U;
}
// * * * * * * * * * * * * * * * * * * * * * * * * * * * * * * * * * * * * * //

dimensions      [0 1 -1 0 0 0 0];

internalField   nonuniform List<vector> 
27000
(
(-7.94086e-05 0.00012072 0.107262)
(-0.000232133 0.000238935 0.076298)
(-0.000136215 0.00024595 0.0818305)
(-0.000106507 0.000219781 0.083541)
(-7.14147e-05 0.00020944 0.0854802)
(-4.77519e-05 0.000205188 0.0869802)
(-2.87659e-05 0.00020405 0.0880902)
(-1.38983e-05 0.000204291 0.0889702)
(-3.30691e-06 0.000205529 0.0896994)
(3.1752e-06 0.000207197 0.090277)
(6.24193e-06 0.000208939 0.0907204)
(6.68851e-06 0.000210544 0.0910546)
(5.26781e-06 0.000211894 0.0912991)
(2.63483e-06 0.000212792 0.0914618)
(-6.30194e-07 0.000213146 0.0915454)
(-4.01243e-06 0.000212953 0.0915519)
(-7.00191e-06 0.000212203 0.0914815)
(-9.06148e-06 0.000210964 0.0913328)
(-9.57931e-06 0.000209331 0.0911035)
(-7.8433e-06 0.000207563 0.0907847)
(-3.05978e-06 0.000205781 0.0903538)
(5.57492e-06 0.000204262 0.0897862)
(1.87824e-05 0.000203598 0.0890641)
(3.65833e-05 0.000204478 0.0881858)
(5.84704e-05 0.000207331 0.0870697)
(8.44534e-05 0.000213542 0.0855523)
(0.00012197 0.000227037 0.0835807)
(0.000148745 0.000253546 0.0818191)
(0.000246672 0.000249219 0.0762239)
(8.57952e-05 0.000127044 0.107084)
(0.000309678 -0.000142506 0.0625941)
(0.000116258 -3.85201e-05 0.0833853)
(7.58606e-05 0.000174506 0.0914129)
(3.36135e-05 0.000228816 0.0942885)
(2.5216e-05 0.000250314 0.095768)
(2.70275e-05 0.000261951 0.0968061)
(2.99859e-05 0.000270781 0.0975548)
(3.25042e-05 0.000278522 0.0981022)
(3.35608e-05 0.000285278 0.0985093)
(3.25573e-05 0.000290991 0.0988098)
(2.935e-05 0.000295637 0.0990274)
(2.42079e-05 0.000299215 0.0991835)
(1.75809e-05 0.000301769 0.0992939)
(9.96214e-06 0.000303335 0.0993678)
(1.82625e-06 0.000303974 0.0994097)
(-6.35773e-06 0.000303702 0.0994216)
(-1.41293e-05 0.000302554 0.0994033)
(-2.10155e-05 0.000300509 0.0993527)
(-2.65278e-05 0.000297584 0.0992642)
(-3.01862e-05 0.000293775 0.099127)
(-3.15919e-05 0.000289131 0.0989224)
(-3.05557e-05 0.000283812 0.0986264)
(-2.73993e-05 0.000278018 0.0982114)
(-2.28609e-05 0.000271942 0.0976389)
(-1.82908e-05 0.000265471 0.0968436)
(-1.57492e-05 0.00025653 0.0957372)
(-2.4675e-05 0.000237289 0.0941758)
(-6.89669e-05 0.000183879 0.0912286)
(-0.000115945 -3.45797e-05 0.0831896)
(-0.000318918 -0.00014967 0.0625243)
(0.000106667 0.000129809 0.0805827)
(0.000123794 0.000165802 0.089763)
(0.000151518 0.000229953 0.0964816)
(0.000132851 0.000264488 0.0981767)
(0.000110596 0.000282498 0.0988217)
(9.40414e-05 0.00029258 0.0992484)
(8.12399e-05 0.000299373 0.0995924)
(7.08663e-05 0.000304856 0.0998637)
(6.18526e-05 0.000309614 0.10007)
(5.32278e-05 0.000313662 0.100222)
(4.43634e-05 0.000316923 0.100332)
(3.49357e-05 0.000319374 0.100409)
(2.49253e-05 0.000321037 0.100463)
(1.44691e-05 0.000321976 0.1005)
(3.7838e-06 0.000322235 0.100524)
(-6.87286e-06 0.00032188 0.100537)
(-1.72222e-05 0.000320908 0.100537)
(-2.70241e-05 0.000319342 0.100521)
(-3.60915e-05 0.000317163 0.100485)
(-4.43498e-05 0.000314404 0.10042)
(-5.19332e-05 0.00031116 0.100313)
(-5.92976e-05 0.000307603 0.10015)
(-6.72275e-05 0.000303914 0.0999168)
(-7.68887e-05 0.000300153 0.0995988)
(-8.9503e-05 0.000295486 0.0991894)
(-0.000106545 0.000287559 0.0986858)
(-0.000130241 0.000270631 0.0979707)
(-0.000151644 0.000234562 0.0962506)
(-0.000128049 0.000165064 0.0896102)
(-0.000115436 0.000121073 0.0805543)
(0.000148698 5.08556e-05 0.0840119)
(0.000154979 0.000146338 0.0938904)
(0.000176499 0.000231457 0.0979603)
(0.000164933 0.000260636 0.0990025)
(0.00014706 0.000275417 0.0993875)
(0.000127782 0.000283465 0.0996398)
(0.000109678 0.000288426 0.0998634)
(9.34618e-05 0.000292162 0.100063)
(7.90562e-05 0.000295332 0.100229)
(6.59344e-05 0.000298102 0.100361)
(5.3524e-05 0.000300367 0.10046)
(4.14213e-05 0.000302067 0.100532)
(2.93734e-05 0.000303186 0.100584)
(1.72857e-05 0.000303746 0.100619)
(5.19261e-06 0.000303811 0.100641)
(-6.81959e-06 0.000303407 0.100652)
(-1.86571e-05 0.000302585 0.10065)
(-3.02468e-05 0.000301343 0.100631)
(-4.16239e-05 0.000299727 0.100592)
(-5.29641e-05 0.000297788 0.100523)
(-6.46258e-05 0.000295673 0.100416)
(-7.71581e-05 0.000293535 0.100263)
(-9.12386e-05 0.000291528 0.100059)
(-0.000107495 0.000289386 0.0998097)
(-0.000126089 0.000286176 0.0995279)
(-0.000146309 0.000279387 0.0992217)
(-0.000165515 0.000264652 0.098806)
(-0.000179224 0.00023299 0.0977824)
(-0.000161095 0.00014222 0.093807)
(-0.000156966 4.01799e-05 0.0840287)
(0.000141863 8.21347e-05 0.0865955)
(0.000173892 0.000154721 0.0959861)
(0.000196234 0.000222081 0.0988115)
(0.000184604 0.00024828 0.099392)
(0.000167892 0.000261251 0.0996004)
(0.000148685 0.000267995 0.0997483)
(0.000129015 0.000271669 0.0998967)
(0.000110275 0.000273943 0.100047)
(9.29075e-05 0.000275673 0.100188)
(7.68507e-05 0.000277116 0.100309)
(6.18278e-05 0.000278306 0.100407)
(4.75164e-05 0.000279188 0.100483)
(3.36311e-05 0.000279715 0.100538)
(2.00003e-05 0.000279896 0.100576)
(6.51152e-06 0.000279757 0.100599)
(-6.87444e-06 0.000279344 0.100607)
(-2.01875e-05 0.000278686 0.100599)
(-3.35089e-05 0.000277838 0.100573)
(-4.69883e-05 0.000276844 0.100523)
(-6.08937e-05 0.000275816 0.100444)
(-7.56e-05 0.000274871 0.100332)
(-9.15116e-05 0.000274131 0.100186)
(-0.000108973 0.000273523 0.100009)
(-0.00012807 0.000272613 0.0998165)
(-0.00014832 0.0002702 0.0996283)
(-0.000168292 0.000264109 0.0994547)
(-0.000185927 0.000250536 0.0992481)
(-0.000198777 0.000221737 0.0987104)
(-0.000178672 0.000149625 0.0959726)
(-0.000147077 7.30204e-05 0.0866463)
(0.000145733 8.55949e-05 0.088445)
(0.000188317 0.000159078 0.0972274)
(0.000210613 0.000211973 0.0993321)
(0.000199107 0.000232112 0.0996765)
(0.000182667 0.000242709 0.0997651)
(0.000163599 0.000248264 0.0998315)
(0.000143547 0.000251049 0.099917)
(0.000123709 0.000252395 0.100021)
(0.000104715 0.000253061 0.100132)
(8.67513e-05 0.000253439 0.100237)
(6.97667e-05 0.000253678 0.100329)
(5.35822e-05 0.000253783 0.100404)
(3.79889e-05 0.000253746 0.10046)
(2.27763e-05 0.000253555 0.1005)
(7.79708e-06 0.000253232 0.100522)
(-7.07911e-06 0.000252815 0.100528)
(-2.1975e-05 0.000252348 0.100516)
(-3.7034e-05 0.00025189 0.100483)
(-5.2466e-05 0.000251519 0.100428)
(-6.85268e-05 0.000251326 0.100346)
(-8.54927e-05 0.000251393 0.100238)
(-0.000103579 0.00025171 0.100109)
(-0.000122843 0.000252042 0.0999696)
(-0.000143064 0.000251786 0.0998372)
(-0.00016356 0.000249857 0.0997316)
(-0.000183055 0.000244526 0.0996623)
(-0.000199908 0.000233129 0.0995957)
(-0.000211981 0.000210774 0.0993019)
(-0.000191063 0.000154325 0.0972684)
(-0.00014851 7.83915e-05 0.0885137)
(0.00015045 8.86109e-05 0.0898158)
(0.000201557 0.000155687 0.0980032)
(0.000222791 0.000197904 0.0996602)
(0.000211067 0.000213485 0.0998852)
(0.000194512 0.00022175 0.0999073)
(0.00017549 0.000226154 0.0999181)
(0.000155328 0.000228218 0.0999539)
(0.000135007 0.000228912 0.100016)
(0.000115091 0.000228852 0.100095)
(9.58532e-05 0.000228454 0.10018)
(7.73731e-05 0.00022793 0.10026)
(5.96024e-05 0.000227386 0.100329)
(4.23994e-05 0.000226841 0.100383)
(2.56032e-05 0.000226316 0.100421)
(9.04672e-06 0.000225834 0.100443)
(-7.425e-06 0.000225427 0.100447)
(-2.39659e-05 0.000225154 0.100432)
(-4.07536e-05 0.000225073 0.100397)
(-5.79756e-05 0.000225258 0.100341)
(-7.58315e-05 0.000225767 0.100264)
(-9.44791e-05 0.000226605 0.10017)
(-0.000113969 0.000227648 0.100067)
(-0.000134191 0.00022855 0.0999683)
(-0.000154817 0.000228698 0.0998913)
(-0.000175222 0.000227198 0.0998512)
(-0.000194398 0.000222827 0.0998522)
(-0.000211026 0.000213826 0.0998605)
(-0.000222934 0.000196613 0.0996831)
(-0.000202534 0.000152076 0.0980768)
(-0.000151434 8.38197e-05 0.0898908)
(0.000156168 8.79801e-05 0.0908363)
(0.000213897 0.000148082 0.0985039)
(0.000233687 0.000181226 0.0998646)
(0.000221549 0.000193086 0.100028)
(0.000204675 0.000199364 0.100019)
(0.000185558 0.00020267 0.0999984)
(0.000165327 0.00020409 0.1)
(0.000144742 0.000204271 0.10003)
(0.000124255 0.000203701 0.100081)
(0.000104128 0.000202746 0.100143)
(8.44956e-05 0.00020167 0.100208)
(6.53751e-05 0.000200618 0.100268)
(4.67037e-05 0.000199672 0.100317)
(2.83673e-05 0.000198877 0.100352)
(1.02269e-05 0.000198267 0.100371)
(-7.85913e-06 0.000197893 0.100373)
(-2.60432e-05 0.0001978 0.100358)
(-4.44733e-05 0.00019805 0.100324)
(-6.32981e-05 0.000198689 0.100272)
(-8.26377e-05 0.000199733 0.100206)
(-0.000102545 0.000201115 0.100131)
(-0.000122975 0.000202632 0.100056)
(-0.000143749 0.000203902 0.0999956)
(-0.000164552 0.000204373 0.0999623)
(-0.000184895 0.000203359 0.0999665)
(-0.000204006 0.000200048 0.100006)
(-0.000220812 0.000193268 0.100045)
(-0.000232963 0.000180378 0.0999206)
(-0.000213747 0.000145955 0.098592)
(-0.000156052 8.53949e-05 0.0909093)
(0.00016293 8.37745e-05 0.0916197)
(0.000225503 0.000136542 0.0988366)
(0.000243735 0.000162463 0.0999885)
(0.000230992 0.000171318 0.100118)
(0.000213669 0.000175902 0.100097)
(0.000194337 0.000178215 0.100063)
(0.000173987 0.000179029 0.100045)
(0.0001532 0.000178792 0.100052)
(0.000132307 0.000177857 0.100081)
(0.000111522 0.000176542 0.100124)
(9.09718e-05 0.0001751 0.100174)
(7.07113e-05 0.000173711 0.100222)
(5.07264e-05 0.000172491 0.100264)
(3.09522e-05 0.000171512 0.100294)
(1.13001e-05 0.000170831 0.100311)
(-8.33998e-06 0.000170496 0.100312)
(-2.80766e-05 0.000170559 0.100298)
(-4.80152e-05 0.000171064 0.100268)
(-6.82429e-05 0.000172032 0.100224)
(-8.88044e-05 0.000173435 0.100171)
(-0.000109688 0.000175155 0.100116)
(-0.000130799 0.000176958 0.100067)
(-0.000151959 0.000178477 0.100036)
(-0.000172923 0.000179247 0.100032)
(-0.00019333 0.000178779 0.100061)
(-0.000212619 0.000176535 0.100116)
(-0.000229849 0.000171711 0.100163)
(-0.000242584 0.000162351 0.100061)
(-0.000224785 0.000135852 0.0989256)
(-0.000162211 8.29273e-05 0.091683)
(0.000169808 7.62556e-05 0.0922275)
(0.000236128 0.000121567 0.0990631)
(0.000252886 0.00014172 0.100061)
(0.000239489 0.000148208 0.100169)
(0.000221657 0.000151419 0.100146)
(0.000202035 0.000152878 0.100107)
(0.000181518 0.000153177 0.100081)
(0.000160532 0.000152609 0.100075)
(0.000139309 0.000151441 0.100088)
(0.000117997 0.000149928 0.100116)
(9.66974e-05 0.0001483 0.100152)
(7.54696e-05 0.000146742 0.10019)
(5.43318e-05 0.000145385 0.100223)
(3.32675e-05 0.000144322 0.100249)
(1.22313e-05 0.000143623 0.100263)
(-8.82961e-06 0.00014334 0.100264)
(-2.99751e-05 0.000143521 0.100251)
(-5.12528e-05 0.000144195 0.100227)
(-7.26857e-05 0.000145358 0.100192)
(-9.42657e-05 0.000146952 0.100153)
(-0.000115935 0.000148838 0.100115)
(-0.000137589 0.000150779 0.100086)
(-0.000159087 0.000152451 0.100075)
(-0.000180247 0.000153492 0.100089)
(-0.000200837 0.000153544 0.100128)
(-0.000220447 0.000152256 0.100185)
(-0.00023823 0.000149048 0.100228)
(-0.000251642 0.000142417 0.100139)
(-0.000235235 0.000122095 0.099146)
(-0.000168905 7.66608e-05 0.0922803)
(0.000176161 6.60626e-05 0.0926888)
(0.000245432 0.00010371 0.0992175)
(0.000260919 0.000119136 0.1001)
(0.000246915 0.000123781 0.100193)
(0.000228613 0.000125898 0.100172)
(0.000208696 0.000126697 0.100134)
(0.000187986 0.000126592 0.100105)
(0.000166798 0.000125805 0.100093)
(0.000145283 0.000124527 0.100097)
(0.000123528 0.000122963 0.100114)
(0.000101601 0.000121309 0.100139)
(7.9558e-05 0.000119733 0.100168)
(5.74333e-05 0.000118372 0.100194)
(3.52458e-05 0.000117324 0.100214)
(1.30013e-05 0.000116661 0.100226)
(-9.30693e-06 0.00011644 0.100227)
(-3.16783e-05 0.000116699 0.100217)
(-5.41044e-05 0.000117455 0.100198)
(-7.65587e-05 0.00011869 0.100173)
(-9.89856e-05 0.000120329 0.100145)
(-0.000121308 0.000122232 0.10012)
(-0.000143428 0.000124185 0.100106)
(-0.000165241 0.000125921 0.100108)
(-0.000186637 0.000127158 0.100129)
(-0.000207465 0.000127637 0.100171)
(-0.000227427 0.000127112 0.100223)
(-0.000245738 0.00012516 0.100259)
(-0.000259798 0.000120595 0.100177)
(-0.000244594 0.000105165 0.0992922)
(-0.000175294 6.72852e-05 0.0927336)
(0.000181599 5.37803e-05 0.0930289)
(0.000253155 8.35124e-05 0.0993211)
(0.000267634 9.49319e-05 0.100119)
(0.000253123 9.8125e-05 0.100201)
(0.000234429 9.94115e-05 0.100181)
(0.000214257 9.97148e-05 0.100147)
(0.000193362 9.93396e-05 0.100119)
(0.000171986 9.84471e-05 0.100104)
(0.000150211 9.71793e-05 0.100103)
(0.000128081 9.56948e-05 0.100113)
(0.000105634 9.41517e-05 0.100131)
(8.2914e-05 9.26964e-05 0.100153)
(5.99705e-05 9.14478e-05 0.100173)
(3.6849e-05 9.05006e-05 0.100189)
(1.35917e-05 8.99241e-05 0.100198)
(-9.755e-06 8.97695e-05 0.100199)
(-3.3146e-05 9.00698e-05 0.100192)
(-5.65229e-05 9.08318e-05 0.100178)
(-7.98132e-05 9.20297e-05 0.10016)
(-0.000102936 9.359e-05 0.100141)
(-0.000125799 9.53862e-05 0.100127)
(-0.000148319 9.72394e-05 0.100121)
(-0.000170422 9.89397e-05 0.10013)
(-0.00019205 0.000100271 0.100154)
(-0.000213114 0.000101046 0.100193)
(-0.000233389 0.000101077 0.100239)
(-0.00025214 0.000100052 0.100269)
(-0.00026673 9.70323e-05 0.100192)
(-0.000252489 8.56391e-05 0.0993879)
(-0.000180863 5.55066e-05 0.0930678)
(0.000185879 3.99469e-05 0.0932678)
(0.000259127 6.15197e-05 0.099388)
(0.00027286 6.93882e-05 0.100127)
(0.000257972 7.14026e-05 0.100201)
(0.000238989 7.20619e-05 0.100182)
(0.000218618 7.20208e-05 0.100151)
(0.000197574 7.15013e-05 0.100125)
(0.000176034 7.06149e-05 0.10011)
(0.000154043 6.94686e-05 0.100107)
(0.000131607 6.81781e-05 0.100113)
(0.000108743 6.68634e-05 0.100126)
(8.54904e-05 6.56382e-05 0.100142)
(6.19019e-05 6.45996e-05 0.100158)
(3.80455e-05 6.38255e-05 0.100171)
(1.39965e-05 6.33752e-05 0.100179)
(-1.01662e-05 6.32923e-05 0.10018)
(-3.4353e-05 6.36002e-05 0.100175)
(-5.84687e-05 6.43045e-05 0.100165)
(-8.2412e-05 6.53768e-05 0.100152)
(-0.000106077 6.67566e-05 0.10014)
(-0.00012937 6.83414e-05 0.100132)
(-0.000152214 6.99944e-05 0.100132)
(-0.000174562 7.15578e-05 0.100143)
(-0.000196388 7.2874e-05 0.100167)
(-0.000217644 7.38015e-05 0.100202)
(-0.000238155 7.42016e-05 0.100242)
(-0.00025723 7.38353e-05 0.100267)
(-0.000272208 7.20103e-05 0.100195)
(-0.000258671 6.41125e-05 0.0994486)
(-0.000185304 4.19726e-05 0.0933026)
(0.00018885 2.50438e-05 0.0934196)
(0.000263232 3.82561e-05 0.0994277)
(0.000276484 4.28465e-05 0.100128)
(0.000261353 4.38611e-05 0.100197)
(0.000242181 4.40292e-05 0.100179)
(0.000221681 4.37629e-05 0.100151)
(0.000200527 4.31992e-05 0.100127)
(0.000178867 4.2415e-05 0.100112)
(0.000156711 4.14821e-05 0.100108)
(0.000134047 4.04772e-05 0.100112)
(0.00011088 3.94823e-05 0.100122)
(8.72423e-05 3.85727e-05 0.100135)
(6.31942e-05 3.78168e-05 0.100148)
(3.88165e-05 3.727e-05 0.100159)
(1.42055e-05 3.69757e-05 0.100166)
(-1.05309e-05 3.69648e-05 0.100167)
(-3.52779e-05 3.72568e-05 0.100164)
(-5.99139e-05 3.78515e-05 0.100156)
(-8.43147e-05 3.87317e-05 0.100147)
(-0.000108364 3.98521e-05 0.100138)
(-0.000131963 4.11428e-05 0.100134)
(-0.000155042 4.25111e-05 0.100136)
(-0.000177568 4.38496e-05 0.100148)
(-0.000199535 4.50507e-05 0.100171)
(-0.000220922 4.6013e-05 0.100203)
(-0.000241585 4.66345e-05 0.100239)
(-0.000260859 4.67477e-05 0.100262)
(-0.000276079 4.58935e-05 0.100193)
(-0.000262988 4.11814e-05 0.099484)
(-0.000188432 2.72483e-05 0.0934518)
(0.000190419 9.50094e-06 0.093493)
(0.000265395 1.42192e-05 0.0994456)
(0.000278428 1.56809e-05 0.100127)
(0.000263184 1.57913e-05 0.100193)
(0.000243925 1.55545e-05 0.100176)
(0.000223358 1.51346e-05 0.100148)
(0.000202144 1.45964e-05 0.100126)
(0.000180409 1.39803e-05 0.100112)
(0.00015815 1.33246e-05 0.100107)
(0.000135347 1.26696e-05 0.10011)
(0.000111998 1.20542e-05 0.100119)
(8.81351e-05 1.15169e-05 0.100131)
(6.38205e-05 1.10909e-05 0.100142)
(3.91448e-05 1.08054e-05 0.100152)
(1.42165e-05 1.06846e-05 0.100158)
(-1.08435e-05 1.07463e-05 0.10016)
(-3.59043e-05 1.1002e-05 0.100157)
(-6.08302e-05 1.14549e-05 0.100151)
(-8.54874e-05 1.20957e-05 0.100143)
(-0.000109752 1.29032e-05 0.100136)
(-0.000133522 1.38425e-05 0.100133)
(-0.000156733 1.48657e-05 0.100137)
(-0.000179358 1.5916e-05 0.100149)
(-0.000201399 1.69315e-05 0.100171)
(-0.000222847 1.78492e-05 0.100201)
(-0.000243576 1.86023e-05 0.100235)
(-0.000262936 1.90928e-05 0.100257)
(-0.000278256 1.90899e-05 0.100191)
(-0.000265352 1.74075e-05 0.0994999)
(-0.00019014 1.18316e-05 0.0935242)
(0.000190533 -6.27696e-06 0.0934925)
(0.000265573 -1.01038e-05 0.0994447)
(0.000278643 -1.17259e-05 0.100126)
(0.000263417 -1.2482e-05 0.100192)
(0.000244165 -1.30944e-05 0.100174)
(0.000223596 -1.36364e-05 0.100147)
(0.000202369 -1.41193e-05 0.100124)
(0.000180609 -1.45371e-05 0.10011)
(0.000158316 -1.4885e-05 0.100105)
(0.000135468 -1.51615e-05 0.100108)
(0.000112066 -1.53689e-05 0.100117)
(8.81431e-05 -1.55101e-05 0.100129)
(6.37643e-05 -1.55866e-05 0.100141)
(3.90223e-05 -1.55973e-05 0.10015)
(1.4027e-05 -1.55395e-05 0.100156)
(-1.10972e-05 -1.5408e-05 0.100158)
(-3.62181e-05 -1.51986e-05 0.100155)
(-6.11989e-05 -1.49062e-05 0.100148)
(-8.59035e-05 -1.45277e-05 0.10014)
(-0.000110207 -1.40597e-05 0.100133)
(-0.000134008 -1.35011e-05 0.10013)
(-0.000157241 -1.28524e-05 0.100133)
(-0.000179878 -1.2121e-05 0.100145)
(-0.000201922 -1.13222e-05 0.100167)
(-0.000223365 -1.04808e-05 0.100198)
(-0.000244079 -9.62903e-06 0.100233)
(-0.000263415 -8.79372e-06 0.100254)
(-0.000278698 -7.97786e-06 0.100189)
(-0.000265725 -6.67103e-06 0.0994989)
(-0.000190383 -3.82219e-06 0.0935239)
(0.000189183 -2.18908e-05 0.093418)
(0.000263752 -3.42297e-05 0.0994249)
(0.000277115 -3.8978e-05 0.100125)
(0.000262035 -4.06281e-05 0.100192)
(0.000242885 -4.16337e-05 0.100174)
(0.000222376 -4.23123e-05 0.100145)
(0.000201184 -4.27496e-05 0.100121)
(0.00017945 -4.29776e-05 0.100106)
(0.000157191 -4.3024e-05 0.100102)
(0.000134396 -4.29287e-05 0.100106)
(0.000111072 -4.27357e-05 0.100116)
(8.72583e-05 -4.24892e-05 0.100129)
(6.30208e-05 -4.22246e-05 0.100143)
(3.84468e-05 -4.19694e-05 0.100153)
(1.36403e-05 -4.17389e-05 0.10016)
(-1.12862e-05 -4.15432e-05 0.100161)
(-3.62114e-05 -4.13822e-05 0.100157)
(-6.10083e-05 -4.12515e-05 0.100149)
(-8.55502e-05 -4.11346e-05 0.100139)
(-0.000109717 -4.10056e-05 0.100129)
(-0.000133408 -4.08252e-05 0.100124)
(-0.000156552 -4.05482e-05 0.100126)
(-0.000179116 -4.01292e-05 0.100138)
(-0.000201095 -3.95362e-05 0.100161)
(-0.000222466 -3.87542e-05 0.100194)
(-0.000243087 -3.77777e-05 0.100231)
(-0.000262293 -3.65638e-05 0.100254)
(-0.000277403 -3.48845e-05 0.100188)
(-0.00026411 -3.05242e-05 0.0994808)
(-0.000189163 -1.92718e-05 0.0934509)
(0.000186407 -3.69274e-05 0.0932654)
(0.000259953 -5.76642e-05 0.0993837)
(0.000273863 -6.56843e-05 0.100121)
(0.000259055 -6.83194e-05 0.100194)
(0.000240102 -6.97902e-05 0.100174)
(0.000219717 -7.06635e-05 0.100142)
(0.000198606 -7.11062e-05 0.100115)
(0.00017695 -7.11879e-05 0.1001)
(0.00015479 -7.09751e-05 0.100096)
(0.00013214 -7.0549e-05 0.100103)
(0.000109025 -6.99976e-05 0.100116)
(8.5489e-05 -6.94031e-05 0.100133)
(6.15969e-05 -6.88355e-05 0.100149)
(3.74268e-05 -6.83421e-05 0.100162)
(1.30624e-05 -6.79591e-05 0.10017)
(-1.1405e-05 -6.77044e-05 0.10017)
(-3.58787e-05 -6.75874e-05 0.100164)
(-6.02563e-05 -6.76008e-05 0.100153)
(-8.44281e-05 -6.77218e-05 0.100139)
(-0.000108286 -6.7902e-05 0.100125)
(-0.00013173 -6.8069e-05 0.100116)
(-0.000154684 -6.81283e-05 0.100115)
(-0.000177099 -6.79829e-05 0.100126)
(-0.000198949 -6.75455e-05 0.10015)
(-0.000220186 -6.67589e-05 0.100186)
(-0.000240636 -6.55764e-05 0.100227)
(-0.000259603 -6.38816e-05 0.100255)
(-0.000274407 -6.12115e-05 0.100186)
(-0.000260539 -5.36216e-05 0.0994427)
(-0.000186528 -3.40738e-05 0.0933008)
(0.000182289 -5.09386e-05 0.0930259)
(0.000254233 -7.98925e-05 0.0993156)
(0.000268939 -9.14585e-05 0.100112)
(0.000254529 -9.52514e-05 0.100192)
(0.000235872 -9.73193e-05 0.10017)
(0.000215673 -9.84911e-05 0.100134)
(0.000194687 -9.90243e-05 0.100105)
(0.00017315 -9.9035e-05 0.10009)
(0.000151149 -9.8635e-05 0.100089)
(0.000128734 -9.79492e-05 0.1001)
(0.000105952 -9.71117e-05 0.100118)
(8.28576e-05 -9.62424e-05 0.10014)
(5.95137e-05 -9.54321e-05 0.100161)
(3.59775e-05 -9.47524e-05 0.100178)
(1.23056e-05 -9.4245e-05 0.100186)
(-1.14462e-05 -9.39402e-05 0.100187)
(-3.52194e-05 -9.38509e-05 0.100178)
(-5.89449e-05 -9.39752e-05 0.100163)
(-8.2545e-05 -9.42853e-05 0.100142)
(-0.000105929 -9.47193e-05 0.100121)
(-0.000129002 -9.51739e-05 0.100105)
(-0.000151677 -9.55112e-05 0.100098)
(-0.000173881 -9.55727e-05 0.100106)
(-0.000195551 -9.52138e-05 0.10013)
(-0.000216602 -9.43209e-05 0.10017)
(-0.000236804 -9.27962e-05 0.100217)
(-0.000255421 -9.04455e-05 0.10025)
(-0.000269781 -8.65568e-05 0.100177)
(-0.000255088 -7.54131e-05 0.0993786)
(-0.000182576 -4.7749e-05 0.0930647)
(0.000176976 -6.34252e-05 0.0926857)
(0.000246695 -0.000100364 0.0992115)
(0.000262444 -0.00011594 0.100091)
(0.000248548 -0.000121167 0.100181)
(0.000230281 -0.000124031 0.100156)
(0.000210325 -0.000125645 0.100117)
(0.000189496 -0.000126379 0.100087)
(0.000168109 -0.000126415 0.100074)
(0.000146317 -0.000125917 0.100078)
(0.000124218 -0.000125069 0.100097)
(0.000101889 -0.000124048 0.100124)
(7.94021e-05 -0.000122999 0.100153)
(5.68025e-05 -0.000122039 0.100181)
(3.41249e-05 -0.000121236 0.100201)
(1.13875e-05 -0.000120646 0.100212)
(-1.14018e-05 -0.000120298 0.100212)
(-3.42307e-05 -0.000120213 0.1002)
(-5.70804e-05 -0.000120396 0.100179)
(-7.99106e-05 -0.000120823 0.100151)
(-0.00010266 -0.000121428 0.10012)
(-0.000125246 -0.000122089 0.100093)
(-0.000147567 -0.000122624 0.100077)
(-0.000169514 -0.000122817 0.100077)
(-0.000190981 -0.000122446 0.100099)
(-0.00021181 -0.000121324 0.100141)
(-0.000231703 -0.000119286 0.100195)
(-0.000249866 -0.00011602 0.100234)
(-0.000263652 -0.000110567 0.100156)
(-0.000247885 -9.53218e-05 0.0992787)
(-0.000177473 -5.97443e-05 0.0927288)
(0.000170711 -7.3817e-05 0.0922248)
(0.000237512 -0.000118504 0.0990569)
(0.000254536 -0.000138828 0.10005)
(0.000241251 -0.000145894 0.100153)
(0.000223443 -0.000149818 0.100126)
(0.000203761 -0.000152035 0.100085)
(0.000183098 -0.000153088 0.100057)
(0.000161877 -0.000153246 0.100051)
(0.000140336 -0.000152756 0.100066)
(0.000118633 -0.000151862 0.100096)
(9.68889e-05 -0.000150779 0.100135)
(7.5169e-05 -0.000149681 0.100174)
(5.35112e-05 -0.000148676 0.100209)
(3.19097e-05 -0.000147838 0.100235)
(1.03324e-05 -0.00014721 0.100248)
(-1.12609e-05 -0.000146826 0.100248)
(-3.29175e-05 -0.000146713 0.100233)
(-5.46692e-05 -0.000146886 0.100205)
(-7.65321e-05 -0.000147334 0.100168)
(-9.84853e-05 -0.000148002 0.100125)
(-0.000120464 -0.000148762 0.100083)
(-0.00014236 -0.000149404 0.100052)
(-0.000164031 -0.000149649 0.100039)
(-0.000185294 -0.000149186 0.100052)
(-0.000205913 -0.000147726 0.100091)
(-0.000225468 -0.000144986 0.10015)
(-0.000243107 -0.000140496 0.100196)
(-0.000256226 -0.000132969 0.100111)
(-0.00023915 -0.000112767 0.0991275)
(-0.000171517 -6.94269e-05 0.0922732)
(0.000163892 -8.14892e-05 0.0916177)
(0.000226953 -0.00013374 0.0988302)
(0.000245438 -0.000159893 0.0999747)
(0.000232792 -0.000169345 0.100098)
(0.000215471 -0.000174612 0.100072)
(0.000196053 -0.000177613 0.100035)
(0.000175523 -0.000179087 0.100017)
(0.000154467 -0.000179462 0.100025)
(0.000133223 -0.000179089 0.100056)
(0.000112023 -0.000178281 0.100103)
(9.10016e-05 -0.000177292 0.100155)
(7.02335e-05 -0.000176288 0.100206)
(4.97121e-05 -0.000175368 0.100249)
(2.93857e-05 -0.000174586 0.10028)
(9.17533e-06 -0.000173974 0.100296)
(-1.10185e-05 -0.000173563 0.100296)
(-3.1291e-05 -0.000173382 0.100279)
(-5.17368e-05 -0.000173463 0.100245)
(-7.2427e-05 -0.000173818 0.100197)
(-9.33975e-05 -0.000174412 0.10014)
(-0.000114627 -0.000175138 0.100081)
(-0.000136017 -0.000175778 0.100028)
(-0.000157387 -0.000176001 0.0999942)
(-0.000178488 -0.000175394 0.099989)
(-0.000198956 -0.000173521 0.100018)
(-0.000218226 -0.000169907 0.100073)
(-0.000235336 -0.00016386 0.100123)
(-0.000247772 -0.000153618 0.100027)
(-0.000229237 -0.000127193 0.0989013)
(-0.0001652 -7.61123e-05 0.0916727)
(0.000157202 -8.57684e-05 0.0908352)
(0.000215395 -0.000145509 0.0984967)
(0.0002354 -0.000179002 0.0998468)
(0.000223318 -0.000191497 0.100002)
(0.00020641 -0.000198426 0.0999875)
(0.000187159 -0.000202343 0.0999644)
(0.000166712 -0.000204305 0.0999669)
(0.000145824 -0.000204975 0.0999991)
(0.000124967 -0.000204834 0.100054)
(0.000104414 -0.000204276 0.100121)
(8.43165e-05 -0.000203551 0.100191)
(6.47001e-05 -0.00020281 0.100253)
(4.55093e-05 -0.000202112 0.100304)
(2.66397e-05 -0.00020148 0.10034)
(7.95518e-06 -0.00020094 0.100358)
(-1.06766e-05 -0.000200505 0.100358)
(-2.93952e-05 -0.000200221 0.100339)
(-4.83395e-05 -0.000200124 0.100301)
(-6.76416e-05 -0.000200253 0.100245)
(-8.74107e-05 -0.000200615 0.100174)
(-0.000107689 -0.000201142 0.100094)
(-0.000128424 -0.000201645 0.100015)
(-0.000149439 -0.000201768 0.0999507)
(-0.000170414 -0.000201 0.0999149)
(-0.000190856 -0.000198706 0.0999178)
(-0.000209987 -0.000194139 0.0999574)
(-0.000226709 -0.000186207 0.0999991)
(-0.000238585 -0.000172491 0.0998793)
(-0.000218582 -0.000138119 0.0985615)
(-0.000159335 -7.91405e-05 0.0908951)
(0.000151598 -8.63917e-05 0.0898151)
(0.000203143 -0.000153317 0.0979933)
(0.000224487 -0.000196072 0.099636)
(0.000212754 -0.000212323 0.0998511)
(0.000196087 -0.000221215 0.099868)
(0.000176882 -0.000226114 0.099878)
(0.000156452 -0.0002286 0.0999165)
(0.000135807 -0.000229631 0.0999838)
(0.000115513 -0.000229879 0.100069)
(9.58671e-05 -0.00022975 0.10016)
(7.69544e-05 -0.000229493 0.100245)
(5.87286e-05 -0.000229181 0.100317)
(4.10624e-05 -0.000228832 0.100374)
(2.3777e-05 -0.000228447 0.100412)
(6.72345e-06 -0.000228015 0.100432)
(-1.02556e-05 -0.000227576 0.100434)
(-2.73087e-05 -0.00022715 0.100415)
(-4.45914e-05 -0.0002268 0.100375)
(-6.22896e-05 -0.000226576 0.100314)
(-8.05792e-05 -0.00022653 0.100231)
(-9.9609e-05 -0.00022666 0.100132)
(-0.000119424 -0.000226845 0.100024)
(-0.000139908 -0.000226757 0.0999215)
(-0.00016073 -0.000225821 0.0998412)
(-0.000181272 -0.000223182 0.0997991)
(-0.000200503 -0.000217673 0.0997995)
(-0.000217091 -0.000207631 0.099809)
(-0.00022875 -0.000189665 0.0996359)
(-0.000207541 -0.000145194 0.0980413)
(-0.000154872 -7.82752e-05 0.0898733)
(0.000147057 -8.33531e-05 0.0884431)
(0.000190007 -0.000156956 0.0972122)
(0.000212251 -0.000210594 0.0992986)
(0.000200626 -0.000231458 0.0996328)
(0.000183988 -0.000242586 0.0997181)
(0.000164661 -0.000248532 0.0997866)
(0.000144303 -0.000251571 0.099878)
(0.000124128 -0.000253113 0.0999897)
(0.000104784 -0.000253946 0.100108)
(8.64546e-05 -0.000254498 0.100221)
(6.90998e-05 -0.000254906 0.100318)
(5.25469e-05 -0.000255187 0.100397)
(3.65541e-05 -0.000255297 0.100455)
(2.09424e-05 -0.000255211 0.100494)
(5.53062e-06 -0.000254939 0.100515)
(-9.79516e-06 -0.000254492 0.100518)
(-2.51461e-05 -0.000253916 0.100502)
(-4.06724e-05 -0.000253254 0.100464)
(-5.65515e-05 -0.000252571 0.100403)
(-7.3038e-05 -0.000251949 0.100315)
(-9.0389e-05 -0.000251453 0.100202)
(-0.000108804 -0.000251073 0.100067)
(-0.000128345 -0.00025058 0.0999227)
(-0.000148785 -0.000249395 0.0997864)
(-0.000169432 -0.000246481 0.0996782)
(-0.000189021 -0.00024015 0.0996075)
(-0.000205868 -0.000227836 0.0995412)
(-0.000217707 -0.000204828 0.099251)
(-0.000195975 -0.000148505 0.0972294)
(-0.000151902 -7.37058e-05 0.088493)
(0.000143459 -7.98737e-05 0.0865903)
(0.000175632 -0.000152973 0.0959623)
(0.000197702 -0.000221237 0.0987667)
(0.000185809 -0.000248187 0.0993385)
(0.000168791 -0.000261582 0.0995476)
(0.000149263 -0.000268533 0.099702)
(0.000129284 -0.000272299 0.09986)
(0.00011023 -0.000274621 0.100021)
(9.25712e-05 -0.000276391 0.100171)
(7.6241e-05 -0.000277912 0.1003)
(6.09492e-05 -0.000279208 0.100403)
(4.63575e-05 -0.000280207 0.100481)
(3.21995e-05 -0.000280842 0.100537)
(1.82481e-05 -0.000281102 0.100574)
(4.42209e-06 -0.000281002 0.100595)
(-9.32843e-06 -0.000280566 0.1006)
(-2.30395e-05 -0.000279836 0.100588)
(-3.67616e-05 -0.000278835 0.100556)
(-5.06542e-05 -0.000277622 0.100501)
(-6.49577e-05 -0.000276276 0.100416)
(-8.00325e-05 -0.000274915 0.100298)
(-9.62799e-05 -0.000273635 0.100145)
(-0.000114017 -0.000272375 0.0999637)
(-0.000133341 -0.000270698 0.0997671)
(-0.000153761 -0.000267455 0.0995758)
(-0.000173841 -0.000260508 0.0994003)
(-0.000191481 -0.000246149 0.0991935)
(-0.000204126 -0.000216822 0.0986588)
(-0.000183208 -0.00014493 0.0959327)
(-0.000150223 -6.93038e-05 0.0866227)
(0.000150497 -4.87424e-05 0.0840009)
(0.000156586 -0.000145027 0.0938567)
(0.000177542 -0.000231371 0.0979047)
(0.0001655 -0.000261143 0.0989427)
(0.0001473 -0.000276171 0.0993342)
(0.000127685 -0.000284231 0.0995981)
(0.0001093 -0.000289106 0.0998347)
(9.28853e-05 -0.000292737 0.100046)
(7.83082e-05 -0.000295858 0.100222)
(6.50374e-05 -0.000298627 0.10036)
(5.24926e-05 -0.000300953 0.100463)
(4.02533e-05 -0.000302727 0.100537)
(2.80313e-05 -0.00030392 0.100588)
(1.57483e-05 -0.000304546 0.100622)
(3.41732e-06 -0.000304623 0.100642)
(-8.87421e-06 -0.000304223 0.100649)
(-2.10136e-05 -0.000303335 0.100642)
(-3.29387e-05 -0.000302003 0.100619)
(-4.46653e-05 -0.000300238 0.100573)
(-5.63605e-05 -0.000298086 0.100498)
(-6.83693e-05 -0.000295691 0.100385)
(-8.12197e-05 -0.000293173 0.100226)
(-9.55811e-05 -0.000290672 0.100017)
(-0.000112058 -0.000287951 0.0997634)
(-0.000130828 -0.000284039 0.0994784)
(-0.000151134 -0.000276575 0.0991705)
(-0.000170381 -0.000261146 0.0987547)
(-0.000183872 -0.000229119 0.0977344)
(-0.000164971 -0.000138566 0.0937701)