/*--------------------------------*- C++ -*----------------------------------*\
| =========                 |                                                 |
| \\      /  F ield         | OpenFOAM: The Open Source CFD Toolbox           |
|  \\    /   O peration     | Version:  2312                                  |
|   \\  /    A nd           | Website:  www.openfoam.com                      |
|    \\/     M anipulation  |                                                 |
\*---------------------------------------------------------------------------*/
FoamFile
{
    version     2.0;
    format      ascii;
    arch        "LSB;label=32;scalar=64";
    class       volScalarField;
    location    "2/copper";
    object      T;
}
// * * * * * * * * * * * * * * * * * * * * * * * * * * * * * * * * * * * * * //

dimensions      [0 0 0 1 0 0 0];

internalField   nonuniform List<scalar> 
7937
(
346.213
346.657
347.344
348.043
319.912
313.625
327.492
339.477
330.917
330.54
323.87
323.24
325.108
337.234
307.993
319.826
334.607
326.72
320.948
320.967
322.369
328.873
325.715
314.371
329.142
318.731
320.671
329.194
310.7
324.938
327.461
325.732
325.314
314.33
321.375
313.491
333.593
316.065
313.442
333.17
335.915
326.227
312.605
325.994
346.158
312.204
338.457
346.287
315.067
313.574
322.426
310.214
326.017
331.879
316.675
326.402
335.612
347.556
335.554
325.274
317.197
335.953
331.667
336.15
316.343
335.374
322.472
315.548
326.993
327.736
335.671
336.21
333.032
311.635
329.794
334.9
342.861
335.565
320.608
337.01
341.697
312.513
334.516
326.764
323.097
327.8
313.004
318.235
335.651
342.194
318.926
321.438
320.369
321.567
324.527
328.303
312.224
320.703
334.343
344.602
327.638
311.737
312.891
322.711
322.443
310.447
321.402
313.865
325.403
314.504
334.423
320.497
316.535
327.158
317.57
327.869
325.907
324.669
320.042
335.396
342.756
331.225
321.675
326.514
348.38
332.886
335.773
327.323
322.315
312.621
316.553
311.251
311.711
345.151
332.235
319.255
311.043
320.455
337.166
323.851
326.41
339.214
341.223
324.272
329.795
313.312
327.851
313.709
323.648
327.477
330.974
331.447
314.552
311.992
309.931
329.202
311.836
309.031
327.141
325.168
321.153
312.351
317.529
315.412
333.591
331.763
314.242
327.333
328.572
336.192
332.229
334.234
319.536
310.451
319.966
324.33
332.768
308.74
319.192
320.68
323.828
321.3
334.398
326.903
310.973
328.569
329.136
323.406
330.513
332.242
343.938
321.491
318.982
319.247
331.134
314.197
328.089
339.312
344.369
330.583
329.197
342.619
329.67
310.358
334.461
337.203
344.743
336.958
316.948
326.38
331.769
338.816
343.644
315.528
341.027
338.66
322.315
314.085
328.471
333.537
315.871
322.421
318.759
315.842
317.495
328.857
333.153
314.806
338.382
312.381
343.452
339.986
314.379
322.374
349.937
315.159
310.163
335.13
332.615
318.739
316.528
332.301
326.512
337.628
312.975
314.884
318.298
321.112
339.23
327.484
327.986
328.25
313.443
322.101
333.954
324.206
345.344
326.837
343.168
312.414
322.734
323.13
336.789
309.927
328.315
325.905
330.102
323.552
348.094
324.762
327.861
324.977
320.393
319.166
325.698
318.086
340.233
327.335
320.988
331.092
320.561
328.23
349.273
334.578
334.528
325.216
312.747
336.158
318.942
332.37
313.907
349.015
347.615
332.841
348.018
337.57
321.557
340.548
330.292
330.044
329.38
327.485
334.914
328.987
338.767
342.688
313.865
339.817
341.81
311.102
325.947
326.961
329.711
326.447
320.021
337.313
316.989
337.788
310.718
330.684
320.267
332.895
327.913
330.498
314.043
319.478
332.547
348.419
342.822
315.352
319.788
321.113
326.533
327.509
319.393
346.036
317.543
324.444
336.814
332.65
327.817
327.195
325.345
321.966
316.109
309.612
310.167
322.358
341.186
317.666
316.001
319.071
315.516
323.742
319.462
308.133
325.454
322.385
312.961
319.167
324.093
333.04
313.103
309.999
314.827
336.149
336.489
317.038
327.946
345.128
315.547
313.616
314.119
313.575
318.805
328.904
321.977
318.754
324.169
325.778
326.579
333.422
317.622
322.79
327.611
325.916
325.738
331.397
311.11
323.729
320.033
324.881
327.792
333.296
317.625
335.619
330.918
323.057
325.496
323.288
337.404
319.23
323.488
327.452
329.552
345.234
314.748
328.84
333.785
328.456
310.483
326.756
314.119
308.286
339.685
324.818
330.85
314.287
316.481
316.284
338.079
336.365
330.453
337.875
331.739
314.768
330.016
312.362
316.674
350.906
326.06
335.547
312.309
323.558
340.485
331.202
330.478
323.801
330.699
326.394
333.569
337.07
330.944
324.982
327.321
331.796
330.047
339.718
333.362
331.355
323.285
330.097
346.933
317.286
328.31
323.849
331.974
316.454
325.264
312.026
338.647
340.368
324.023
331.308
311.226
322.974
318.604
324.228
316.047
340.604
331.264
316.846
313.027
323.463
333.844
314.22
335.847
318.515
322.257
334.863
341.796
343.465
334.517
339.837
335.072
319.5
319.518
344.975
322.071
322.26
324.368
321.45
319.456
328.244
319.95
316.646
323.071
341.563
322.809
321.535
316.687
323.241
323.712
337.753
326.045
330.232
336.246
326.224
341.777
332.06
319.821
332.18
316.188
315.079
327.395
317.164
336.71
341.739
324.911
330.426
321.448
316.553
332.905
338.277
327.539
323.598
314.945
323.838
343.687
327.239
324.403
329.862
324.835
342.834
324.772
343.663
330.826
328.437
331.33
316.302
323.969
326.12
311.556
341.724
330.331
348.511
326.591
330.338
324.496
322.783
343.422
317.78
327.872
338.926
318.625
330.546
325.572
318.768
309.313
336.134
327.034
341.661
337.535
336.602
313.917
334.802
313.052
325.985
323.416
332.811
328.107
314.544
324.709
331.298
334.844
325.499
334.392
314.185
313.662
326.179
317.614
322.666
317.183
312.64
338.662
328.837
318.325
345.156
326.124
319.779
324.556
338.857
326.511
313.055
332.467
313.076
332.841
310.637
315.303
320.345
309.507
335.738
343.759
311.943
309.972
313.471
332.162
332.607
311.576
314.459
315.89
333.641
309.077
319.019
315.786
311.174
344.566
310.385
308.139
308.081
322.985
325.757
306.294
323.975
324.37
322.137
323.11
322.061
324.83
324.63
329.34
326.11
327.52
313.327
330.786
332.709
343.85
317.712
322.55
312.557
329.55
321.06
326.54
330.759
338.564
322.438
307.852
330.275
308.089
310.083
316.036
329.101
315.635
327.431
308.929
315.04
320.23
323.026
327.845
324.821
322.848
313.383
319.685
317.595
331.955
328.392
313.04
310.231
323.382
325.587
328.778
322.635
320.673
328.341
322.414
330.476
326.796
324.655
324.985
325.026
337.009
332.932
307.936
337.701
331.516
335.939
329.635
326.297
330.947
308.042
330.519
324.169
320.337
324.272
343.529
343.759
327.96
325.607
326.308
331.789
330.18
326.767
310.736
319.697
333.683
336.822
332.179
343.788
325.632
333.973
335.732
317.404
336.988
330.951
320.849
336.463
314.941
337.846
328.989
333.216
330.368
332.007
336.715
328.594
332.754
324.148
316.761
313.827
329.982
340.447
322.221
330.574
323.97
333.605
326.953
320.421
333.805
325.149
323.854
323.524
344.723
339.708
318.714
343.781
338.812
315.407
319.337
346.624
317.525
342.09
313.123
341.876
326.954
324.317
335.766
327.035
315.718
316.174
347.758
326.777
343.183
319.9
320.641
328.32
322.633
325.086
324.03
314.699
335.397
328.269
328.4
329.992
316.125
325.121
341.902
323.486
328.631
325.969
323.19
328.377
328.279
340.064
333.631
331.887
326.237
337.338
329.983
332.86
333.84
316.687
338.402
317.845
329.771
313.308
320.897
324.662
328.737
335.842
331.398
317.222
319.253
328.475
330.798
321.503
320.491
320.016
321.996
318.894
334.376
341.883
327.869
340.892
334.553
318.666
319.276
326.727
320.029
310.15
322.398
314.127
324.686
317.753
336.183
332.501
342.738
313.038
335.175
314.509
334.704
333.151
324.574
333.539
329.411
330.081
332.592
335.037
333.988
332.83
326.843
330.21
331.188
343.097
338.705
344.095
336.437
320.336
319.419
317.05
315.139
333.444
326.747
316.567
323.877
309.347
321.923
335.758
329.723
325.308
318.249
340.841
323.29
334.337
310.369
321.715
323.135
311.956
314.339
322.336
316.72
318.178
331.529
318.25
320.179
325.816
327.483
314.095
326.906
322.434
337.969
318.924
326.055
327.987
336.363
330.217
330.286
325.894
345.619
329.944
317.963
321.148
315.227
324.227
331.714
331.456
328.08
327.354
332.114
326.191
323.332
318.051
324.898
323.925
319.961
314.709
318.854
330.871
330.496
324.187
339.312
329.682
340.504
311.696
309.675
321.04
308.465
315.46
340.967
330.698
341.876
344.268
343.008
328.57
323.837
335.951
343.85
316.314
322.933
339.933
310.326
336.996
317.151
315.219
326.576
335.012
328.425
334.687
310.652
317.466
342.872
318.301
314.41
311.364
340.434
332.332
328.398
333.233
308.984
324.135
323.628
312.026
347.055
316.82
334.452
326.887
327.821
348.092
321.705
332.66
337.603
317.332
333.023
329.467
333.125
318.154
333.043
337.685
341.226
315.691
330.595
345.384
326.943
335.78
323.718
339.048
320.548
339.295
327.509
329.971
346.59
338.993
342.457
333.961
318.333
338.835
329.838
331.234
332.068
329.186
345.849
312.373
328.159
326.113
324.71
327.271
323.432
325.92
312.497
314.31
330.929
336.088
328.924
331.284
331.599
313.609
326.806
313.95
337.876
330.501
329.791
314.865
329.63
324.037
306.74
315.774
326.601
325.449
330.134
321.71
322.618
336.769
325.472
331.551
325.624
329.828
332.255
334.106
327.777
332.237
334.634
329.449
329.11
319.52
311.934
334.128
331.134
329.686
346.728
324.93
328.857
326.392
328.759
330.488
327.185
329.051
329.935
340.611
327.097
337.513
341.553
340.288
342.602
328.685
328.367
313.197
344.024
329.897
317.156
339.766
328.919
308.822
339.757
331.642
312.038
329.711
311.466
311.713
314.324
322.179
329.773
321.537
309.395
326.138
315.873
327.057
313.125
338.518
327.329
332.48
314.976
330.918
344.009
315.006
313.993
339.591
330.717
322.78
322.954
316.622
338.1
309.442
330.564
314.275
322.876
321.022
322.313
331.024
326.075
318.051
352.594
324.196
330.33
324.32
328.772
326.253
322.294
329.382
314.05
325.799
326.93
312.046
330.007
335.458
313.66
338.059
332.576
334.673
337.01
323.338
325.738
330.217
321.002
308.591
338.992
313.703
331.819
336.867
336.814
306.586
337.185
324.794
336.491
345.879
314.865
321.906
317.724
315.472
317.656
322.553
314.195
309.418
326.084
323.788
319.23
316.323
310.794
327.298
311.455
329.997
324.207
320.618
324.815
340.613
325.707
328.034
324.269
328.594
338.059
330.647
332.235
312.388
339.48
313.168
339.922
337.649
335.593
319.608
334.685
341.176
340.329
322.935
313.773
330.373
334.632
346.593
314.352
341.449
334.25
330.708
332.075
345.112
340.774
317.613
309.634
339.258
329.915
316.921
324.59
315.494
319.596
325.31
316.475
312.017
314.801
313.462
324.41
313.604
312.12
317.143
345.871
324.539
313.532
312.864
322.675
315.783
330.411
323.742
337.187
324.262
321.628
327.425
319.914
341.903
330.403
331.796
316.714
327.148
328.757
323.84
324.989
332.543
336.721
331.481
345.503
327.701
309.942
332.652
323.354
341.415
324.69
326.407
328.772
319.315
324.724
317.738
325.612
324.361
328.34
326.509
329.471
317.477
326.951
339.898
328.859
324.404
329.506
335.846
336.177
343.351
321.974
338.892
330.955
323.153
316.399
335.905
318.602
331.894
339.183
327.067
321.942
321.176
330.417
347.302
319.515
326.356
318.326
327.522
316.391
327.09
329.144
326.904
316.77
327.367
325.073
313.214
344.61
311.576
311.31
316.396
314.59
314.414
324.431
326.719
343.027
324.775
329.066
320.89
321.6
343.792
333.105
324.175
343.176
312.539
324.302
347.233
346.586
335.157
343.694
334.542
341.586
333.126
342.998
328.495
341.255
339.928
330.621
339.839
314.296
315.494
323.332
338.637
321.613
320.256
339.193
324.582
322.635
341.118
341.762
336.41
326.921
330.54
309.978
321.755
344.33
329.433
326.269
337.069
324.451
346.183
329.288
323.475
336.146
319.795
327.747
312.331
317.842
324.027
342.826
324.8
333.361
327.571
328.448
323.857
329.309
323.035
328.295
323.681
315.632
335.403
313.318
334.91
321.44
328.522
328.757
334.148
330.618
314.535
318.507
334.617
318.516
333.47
334.798
321.428
312.8
338.597
328.179
321.027
313.232
312.144
326.663
318.52
327.912
328.243
318.086
314.72
315.52
310.203
321.3
326.958
324.679
315.488
321.232
330.054
310.405
317.532
315.894
337.063
329.384
316.276
332.603
333.739
330.624
347.505
322.78
324.585
326.479
328.889
337.565
324.079
328.871
322.127
330.625
324.329
313.669
320.947
332.168
333.397
310.962
339.308
330.636
330.267
321.176
330.734
335.424
317.868
346.683
330.06
342.337
335.506
329.13
347.701
327.514
337.677
346.789
338.653
328.583
316.503
318.044
334.363
320.401
330.423
325.567
320.929
332.273
312.633
330.971
339.784
343.262
325.123
328.684
326.473
338.954
312.882
345.981
344.771
316.334
313.556
345.926
330.488
312.925
314.14
327.093
322.763
325.012
324.223
316.067
321.368
322.172
313.691
327.308
315.601
312.834
329.056
330.167
330.84
332.77
327.168
336.238
333.943
328.76
323.697
332.028
327.675
336.028
336.071
331.403
342.825
329.496
332.542
324.859
326.275
343.543
335.357
325.31
346.481
345.519
343.309
345.586
340.118
328.009
325.468
334.586
345.607
321.472
319.186
343.997
346.322
327.622
317.504
321.291
342.955
330.924
328.304
327.948
319.186
335.777
343.264
326.632
312.295
316.911
339.171
311.556
307.657
331.437
316.61
332.667
312.823
326.939
329.117
341.987
315.443
312.774
313.153
321.663
328.857
326.88
335.601
333.855
325.361
325.223
320.514
327.129
311.048
320.016
322.574
325.447
325.536
320.162
326.695
313.918
317.772
349.688
322.309
311.808
319.842
317.054
316.951
339.835
337.192
346.6
327.456
324.882
325.337
340.801
333.371
336.887
327.328
334.548
335.988
331.926
328.384
337.139
338.573
343.298
325.372
318.516
345.903
329.164
340.618
309.899
338.29
338.668
318.88
322.037
331.014
331.4
344.954
332.161
332.469
340.842
341.741
323.639
326.162
327.738
311.841
334.76
331.688
344.82
328.908
328.339
329.266
326.609
324.979
328.606
313.474
314.929
341.095
321.846
311.806
336.247
319.938
341.503
323.719
333.099
320.511
335.706
324.28
330.819
335.772
337.094
332.45
310.233
310.331
336.654
337.317
309.824
312.529
310.585
315.326
334.276
324.827
338.275
314.702
340.688
315.981
344.4
315.942
306.703
317.246
345.712
326.937
328.268
327.592
312.08
343.307
319.654
330.159
345.276
319.817
312.911
326.992
326.701
332.451
343.044
312.685
334.034
331.332
328.999
345.446
315.495
329.382
335.898
329.785
337.596
327.386
325.599
327.525
316.078
306.625
327.936
327.439
326.884
321.984
327.922
322.361
322.903
325.79
347.376
317.154
318.256
323.743
324.176
329.382
348.464
312.233
337.454
347.043
309.932
326.387
329.576
331.744
316.323
314.341
346.49
344.577
342.792
324.359
314.036
322.884
322.447
320.062
328.352
339.137
326.631
329.085
319.571
327.979
315.44
315.231
328.684
318.302
325.594
326.509
325.925
317.369
313.671
347.931
327.081
317.918
332.038
326.752
322.599
315.513
322.618
316.641
316.253
329.261
327.427
309.705
319.323
324.309
315.767
317.594
316.287
315.392
324.125
323.183
325.714
317.311
320.629
334.949
338.02
318.272
333.407
329.516
318.579
313.148
319.277
324.403
315.766
310.774
338.587
306.496
335.067
322.47
325.76
331.279
324.394
321.595
307.467
327.181
323.117
320.394
332.301
323.608
342.1
316.985
331.191
316.432
332.982
318.873
335.261
340.76
339.647
315.155
337.83
320.158
319.529
318.038
324.996
321.698
321.018
326.346
339.437
330.92
328.734
316.263
328.546
323.876
326.115
340.539
329.12
326.414
321.628
344.937
323.771
343.973
345.843
336.162
344.532
317.56
323.461
336.771
310.822
318.636
309.45
325.724
338.617
325.559
323.847
323.538
328.161
319.067
315.671
339.243
326.039
318.469
323.521
320.088
323.928
340.353
322.998
321.872
331.236
339.756
325.979
315.67
328.952
324.82
329.354
329.701
314.042
312.375
328.369
310.369
337.609
334.819
328.82
331.196
312.789
325.163
336.559
312.338
346.772
333.008
315.228
327.365
344.254
345.265
341.033
345.866
343.708
327.701
346.484
345.609
334.329
329.641
326.805
327.249
309.441
328.929
307.487
339.901
318.911
351.028
322.001
310.448
319.364
316.564
315.409
323.875
338.349
337.781
330.016
328.255
345.498
326.812
331.677
329.304
328.426
327.158
338.887
329.939
340.769
338.38
323.227
344.253
344.004
326.715
311.931
315.045
342.663
322.309
325.691
328.055
314.163
312.807
321.181
312.623
313.656
312.499
325.635
320.738
323.412
334.415
327.473
326.908
320.305
325.219
327.186
317.642
333.724
320.538
328.028
322.303
322.113
336.085
333.084
333.074
330.133
330.54
311.76
345.923
324.629
345.658
342.701
347.569
325.473
345.255
327.07
325.548
341.693
339.718
331.591
326.665
336.862
323.155
336.443
332.404
324.986
325.441
312.23
308.205
309.832
328.415
324.096
321.529
323.791
314.836
314.904
346.43
327.495
327.792
326.703
330.171
325.372
314.227
338.206
324.128
328.717
326.129
309.156
326.607
329.066
316.701
329.559
337.674
338.574
331.086
312.267
321.771
327.615
330.467
331.287
331.153
325.485
316.345
314.457
312.489
332.42
334.701
325.14
336.563
325.541
318.921
312.25
323.688
310.597
328.027
331.569
309.339
332.361
325.775
329.386
313.693
330.254
319.094
334.841
337.1
342.698
347.308
332.444
340.775
328.323
341.086
326.679
328.454
328.36
330.796
347.031
328.762
315.275
337.99
312.83
310.502
319.776
342.378
323.524
320.803
343.397
319.05
319.335
335.849
330.43
324.001
332.249
312.921
320.795
344.782
329.013
344.027
312.15
322.328
335.389
346.163
314.501
323.727
331.982
317.235
309.069
319.504
327.567
338.773
342.857
327.773
342.04
319.808
312.845
317.473
318.95
340.441
315.543
314.799
314.297
339.781
320.762
322.304
323.927
321.785
314.688
311.498
327.96
321.665
338.761
328.653
326.123
322.022
339.44
333.011
332.444
337.939
330.957
333.735
331.438
335.623
338.883
325.018
327.214
335.406
333.603
329.862
334.736
331.683
339.525
333.388
338.434
332.098
338.8
329.173
328.825
334.394
314.419
336.614
312.95
311.727
344.589
327.743
341.878
317.007
315.845
307.971
316.83
326.063
314.773
310.331
322.397
317.784
323.53
314.944
323.921
331.006
319.015
313.397
321.906
321.742
327.414
327.101
325.294
338.442
323.43
332.134
309.942
327.541
330.304
330.92
324.744
309.683
334.425
326.459
322.909
336.754
333.287
326.43
331.427
336.352
346.524
336.669
315.463
322.574
334.543
332.041
341.26
322.156
338.337
311.2
333.16
332.895
330.814
323.362
336.652
321.639
318.403
328.872
327.262
329.736
340.793
349.573
313.408
320.333
329.043
323.023
329.878
324.144
338.412
325.646
322.564
336.909
347.685
336.385
323.535
327.223
340.51
334.906
322.412
335.769
324.194
324.962
324.216
327.37
330.472
327.649
329.466
332.1
312.072
310.561
308.49
329.351
341.329
333.669
329.888
323.703
339.164
339.631
339.447
311.903
332.35
310.199
339.685
324.635
315.074
322.292
311.031
305.558
342.13
341.487
316.858
313.355
313.268
314.253
328.659
330.075
329.926
342.255
330.899
320.465
344.194
319.667
329.935
322.094
315.704
335.269
317.425
336.699
330.43
339.198
341.126
340.43
325.931
343.992
329.098
327.594
318.252
324.814
339.81
313.502
313.534
315.287
318.642
331.654
335.507
317.423
315.089
327.989
322.98
337.112
329.491
339.672
315.681
339.376
342.038
334.754
328.611
349.396
316.013
324.159
344.339
315.477
342.632
318.184
342.479
327.871
320.699
326.279
318.401
330.058
333.676
324.168
328.471
326.796
320.998
330.373
329.525
316.321
317.781
321.284
328
308.724
312.416
313.879
320.742
326.491
329.195
347.073
325.73
325.665
324.731
311.67
324.969
326.459
329.916
325.175
318.111
325.526
317.87
336.8
306.632
329.231
343.579
328.607
326.6
322.753
343.83
344.873
317.27
318.532
311.552
328.535
327.816
312.812
312.615
339.199
318.679
330.912
334.478
331.735
319.856
310.957
328.138
321.553
321.764
326.887
327.314
324.818
329.636
327.138
313.588
348.243
321.41
330.737
325.039
317.883
338.904
316.121
333.129
331.533
326.809
347.682
316.765
339.989
316.994
328.978
333.756
317.13
331.903
330.851
335.126
330.19
314.549
319.419
319.145
320.618
322.955
319.306
312.259
323.889
317.494
330.116
332.683
327.148
344.884
342.649
330.035
336.157
323.066
337.377
332.848
340.902
330.113
343.764
332.052
344.747
343.07
320.061
320.173
345.044
312.711
330.615
317.932
313.566
320.124
309.987
327.502
350.069
314.142
312.979
310.543
311.423
311.21
319.841
309.819
309.671
325.637
331.194
350.926
318.818
326.256
327.621
333.293
314.058
315.635
317.474
340.037
313.616
319.367
340.197
346.427
326.548
319.555
337.921
321.541
322.179
323.56
335.263
319.336
313.194
336.102
319.709
327.398
316.145
316.649
312.128
325.197
313.728
330.561
332.064
330.626
315.227
337.64
313.466
330.312
311.306
324.874
333.786
330.878
314.221
308.391
320.141
319.585
314.725
320.256
315.001
326.984
337.918
319.075
319.705
335.992
337.538
321.293
324.006
320.232
321.863
329.125
322.868
333.141
322.486
341.262
330.828
330.166
325.953
333.13
337.388
325.276
324.045
321.989
326.852
334.277
311.549
323.418
326.106
317.453
326.564
316.722
313.204
319.606
321.755
320.021
340.277
334.776
315.723
314.899
318.622
335.715
313.051
324.795
315.307
342.017
321.584
324.616
343.272
339.965
330.233
320.252
330.183
322.67
330.621
328.081
321.657
318.05
326.929
329.162
330.564
326.557
334.957
328.69
331.128
338.781
343.888
326.415
325.085
327.968
338.416
338.824
329.7
326.741
340.969
338.37
331.263
312.537
310.361
318.887
313.276
311.186
311.567
320.632
337.296
328.293
324.262
347.174
327.858
325.253
337.018
324.726
345.636
339.987
329.391
329.375
345.388
309.542
309.65
324.844
321.957
312.567
348.849
333.318
340.516
321.502
341.488
328.104
342.856
340.122
341.156
317.017
314.15
324.58
316.504
317.056
315.885
336.276
334.356
328.121
328.474
312.666
336.497
322.877
333.464
326.692
322.069
330.101
311.546
313.486
313.904
313.094
328.481
312.821
336.869
315.141
316.05
328.112
330.162
325.964
323.924
321.721
326.64
326.005
328.372
324.998
334.249
332.402
330.174
327.808
331.122
328.406
341.309
343.418
335.155
322.273
329.432
315.041
332.726
323.521
346.624
319.144
314.516
320.541
318.099
319.244
321.92
312.122
337.708
319.288
315.502
345.439
320.969
343.619
329.413
341.286
345.469
348.098
325.838
345.081
336.902
346.929
330.072
324.86
324.528
322.527
333.65
336.282
314.091
324.957
329.857
332.737
316.327
324.397
329.241
345.584
346.2
327.653
341.642
341.008
328.724
336.69
337.015
345.902
329.399
317.99
336.991
324.669
337.795
324.735
327.411
312.391
315.055
337.285
319.665
346.225
336.63
328.807
329.883
337.228
336.276
336.731
319.786
344.382
312.701
339.312
311.237
313.632
336.453
330.663
311.181
335.21
314.757
343.004
314.387
314.995
310.189
310.58
308.554
312.689
328.664
327.441
311.314
328.128
332.769
319.647
327.787
328.083
329.432
326.961
322.989
326.634
326.734
328.423
331.156
327.584
333.071
331.93
332.86
323.417
324.847
340.037
339.128
312.927
331.554
327.517
324.299
334.307
334.107
331.963
321.766
330.266
345.702
342.114
324.865
328.136
326.822
328.657
343.284
324.893
344.978
324.239
311.027
315.384
322.079
326.56
306.172
325.821
325.537
328.163
324.521
331.93
311.344
338.91
338.242
317.165
316.6
332.878
326.74
329.452
331.741
322.574
324.104
328.419
317.585
310.331
337.39
319.922
334.837
329.68
330.484
338.631
317.155
319.864
323.595
326.081
322.66
344.239
328.106
333.487
327.881
313.712
321.431
326.978
325.448
322.008
313.355
323.019
328.321
322.508
326.086
324.23
323.066
326.716
312.769
318.666
322.146
330.424
319.875
323.228
338.998
313.736
332.233
309.769
334.199
327.168
323.934
328.18
321.553
333.678
320.487
311.592
332.448
312.702
315.35
321.018
316.157
308.552
332.751
315.487
308.582
330.483
326.897
314.281
342.501
326.296
318.001
329.074
316.328
320.342
320.335
321.96
328.004
336.506
348.868
322.474
336.745
325.776
335.33
335.37
327.185
333.68
329.726
329.423
327.951
337.7
327.188
345.42
342.587
325.231
340.402
335.185
327.604
342.351
310.95
312.311
314.055
313.909
310.825
310.007
311.644
346.135
310.847
326.593
323.512
311.043
318.351
318.714
311.212
326.184
326.655
337.005
316.788
342.395
315.016
339.039
316.893
312.98
316.05
341.419
344.696
341.748
314.712
314.843
330.742
314.913
319.679
338.927
322.29
321.107
329.797
319.981
332.961
330.831
341.521
321.266
316.077
320.668
316.324
309.394
317.258
306.151
330.137
334.597
324.024
334.776
318.476
322.173
317.858
316.312
323.462
309.643
332.442
346.623
327.636
324.586
336.837
346.571
345.085
325.351
336.863
315.795
334.019
312.443
325.265
312.108
315.184
324.767
318.367
323.185
329.683
323.416
320.636
321.57
323.143
312.833
321.333
310.55
331.768
333.078
325.234
331.881
326.308
339.761
322.963
331.308
332.562
316.044
326.748
320.118
330.536
322.36
317.916
319.094
344.863
329.43
329.46
324.97
321.164
329.066
324.68
313.282
324.005
324.786
323.264
317.409
315.886
320.611
310.47
319.996
328.219
323.857
325.447
323.564
321.715
336.106
332.245
344.162
345.1
323.314
330.092
341.681
339.255
322.192
325.71
321.423
326.678
341.623
325.727
325.347
331.004
327.831
322.232
321.712
335.261
322.737
318.092
317.669
328.694
322.333
337.626
311.837
339.369
339.651
328.367
311.207
338.46
336.814
314.317
325.81
322.267
312.608
325.74
323.32
327.452
315.202
314.255
319.593
321.455
335.519
328.335
319.105
333.096
316.998
317.077
336.579
335.209
335.138
334.727
312.436
315.018
319.068
336.681
318.987
335.655
327.096
317.181
319.87
332.665
326.454
328.747
321.91
324.011
314.836
313.491
348.787
314.221
311.158
317.787
315.683
328.036
322.558
326.799
327.096
335.478
324.894
331.372
327.49
326.568
327.133
338.365
332.566
319.061
326.066
328.083
329.749
342.396
332.196
322.972
335.313
327.102
337.932
335.274
325.883
325.249
337.98
335.685
337.853
319.849
318.675
323.657
316.027
320.096
322.75
327.115
340.259
322.713
326.862
313.889
321.916
330.599
333.994
315.014
322.356
330.266
325.622
314.855
335.391
345
331.617
325.266
321.614
326.831
328.62
325.578
320.511
326.059
327.145
327.812
322.485
323.616
327.99
323.78
329.096
321.502
339.048
326.081
323.27
339.432
313.704
314.008
345.222
316.737
344.443
317.154
314.712
334.276
314.636
316.119
318.139
310.804
327.508
328.351
315.715
322.402
330.731
319.781
324.937
336.596
332.455
327.289
330.662
328.498
336.438
329.891
329.613
313.605
315.616
331.256
313.415
341.566
329.852
332.521
334.28
337.744
323.611
325.139
316.545
330.932
315.357
329.914
316.036
330.317
322.889
313.582
342.426
311.013
331.411
336.38
335.459
325.691
316.282
332.95
333.512
335.023
330.956
319.826
315.105
334.799
327.101
320.662
321.802
323.2
321.334
328.825
334.974
333.96
317.452
329.451
320.26
337.333
327.462
338.573
320.253
318.469
319.47
332.479
328.63
313.379
334.966
313.162
314.178
319.784
337.653
314.992
314.016
334.75
328.865
341.473
322.699
318.572
312.63
327.72
328.835
323.232
326.726
313.181
315.509
321.619
323.613
323.258
313.928
318.47
326.53
313.55
314.548
312.341
332.871
313.93
335.706
310.171
320.449
325.211
320.819
322.137
319.226
316.474
322.047
326.987
321.212
325.479
344.941
320.038
319.606
316.498
318.445
326.576
339.7
323.679
325.501
334.591
332.142
334.669
324.257
326.992
316.341
317.673
334.693
315.409
332.413
326.278
313.132
323.953
320.254
314.052
332.776
323.54
313.761
327.395
323.318
327.745
328.573
306.097
316.383
320.379
315.504
313.261
322.594
317.824
328.979
331.168
315.538
321.574
329.716
324.524
326.248
326.834
328.817
327.771
331.989
322.524
327.982
331.033
317.312
332.935
325.648
324.673
317.18
315.055
325.57
324.951
327.662
324.555
316.446
311.688
319.383
313.235
315.076
318.182
341.623
334.14
325.881
318.928
316.985
330.581
327.425
326.751
321.967
328.983
318.169
319.261
323.997
323.692
337.932
326.781
323.341
311.706
325.275
324.741
323.612
325.371
318.159
325.646
328.349
327.904
328.444
325.171
330.54
326.783
329.349
323.272
328.108
329.389
324.843
323.67
312.824
316.966
319.481
331.267
329.691
334.629
327.853
326.618
327.34
324.683
313.769
325.541
315.302
320.838
326.185
318.033
318.171
311.695
322.171
326.433
313.739
328.997
329.153
330.586
315.467
321.659
318.434
321.85
317.211
315.945
329.851
329.529
310.51
328.16
334.565
314.632
344.333
338.38
314.736
330.041
337.54
314.131
314.814
313.275
340.77
310.562
314.705
325.674
317.384
345.591
333.887
335.819
332.903
339.727
343.428
346.789
329.741
313.246
335.102
322.765
306.044
332.446
322.011
313.281
314.769
307.19
315.837
315.372
319.75
313.56
321.248
308.386
321.643
311.044
321.524
319.764
320.018
317.723
321.442
316.206
315.634
312.393
321.005
319.079
322.348
321.923
322.702
325.405
328.824
327.728
321.9
324.789
328.456
335.196
321.533
324.659
324.133
335.787
328.812
325.905
320.056
333.48
326.688
325.228
335.864
323.643
331.56
334.77
337.481
333.566
336.496
328.915
325.027
323.924
312.023
315.117
337.513
313.353
325.242
339.007
344.146
338.526
313.553
315.082
315.519
312.838
317.231
309.964
312.822
312.743
318.868
309.431
320.526
319.695
309.166
321.318
320.131
320.242
318.048
308.289
319.81
325.585
318.947
326.539
312.972
332.084
321.086
326.614
321.16
315.91
332.288
324.932
321.583
314.612
326.85
314.471
328.336
330.201
313.317
330.338
329.612
337.603
340.371
340.029
321.049
334.449
317.238
346.272
339.924
324.093
336.149
319.331
334.062
328.979
328.371
331.683
329.275
325.171
325.05
326.881
325.273
328.361
329.998
328.885
321.869
324.457
334.144
326.705
331.377
329.052
327.1
328.694
328.946
334.851
325.826
324.498
325.43
336.307
324.416
347.264
347.507
326.446
329.974
345.758
329.351
332.599
320.482
314.345
331.276
332.045
325.385
324.908
318.031
328.21
319.832
330.028
321.89
329.061
331.305
329.612
328.504
326.473
330.81
323.077
325.114
334.665
326.009
330.698
314.683
327.692
312.254
312.455
342.308
317.113
345.604
329.692
321.068
315.459
317.193
314.491
322.357
343.706
322.556
328.504
319.53
341.546
315.347
342.844
333.776
335.515
330.582
333.301
330.332
331.034
334.271
315.711
332.229
337.167
344.82
346.123
331.834
333.753
309.485
350.107
307.526
309.626
324.059
329.099
327.582
347.267
348.781
316.165
327.261
318.041
320.053
342.936
334.693
312.298
336.368
315.808
312.801
321.986
312.171
329.065
312.417
325.225
311.273
332.196
313.328
318.297
320.7
336.214
329.932
321.233
330.311
326.659
317.724
325.659
323.565
328.413
310.994
316.311
313.051
327.713
326.93
325.058
315.709
326.195
328.878
324.168
330.126
329.801
326.237
334.92
328.026
330.181
337.145
328.08
327.878
324.637
325.998
331.549
338.366
339.511
335.229
327.893
328.38
328.785
322.999
331.178
329.791
328.73
326.859
318.043
329.705
321.691
325.035
326.745
328.132
329.621
338.189
324.649
311.252
324.196
332.824
323.972
327.326
326.113
328.898
328.436
329.896
332.148
343.125
343.961
345.208
317.992
341.155
347.91
315.99
327.868
341.188
326.574
312.526
328.572
334.403
323.467
332.217
329.281
321.317
343.663
331.314
332.494
328.463