/*--------------------------------*- C++ -*----------------------------------*\
| =========                 |                                                 |
| \\      /  F ield         | OpenFOAM: The Open Source CFD Toolbox           |
|  \\    /   O peration     | Version:  2312                                  |
|   \\  /    A nd           | Website:  www.openfoam.com                      |
|    \\/     M anipulation  |                                                 |
\*---------------------------------------------------------------------------*/
FoamFile
{
    version     2.0;
    format      ascii;
    arch        "LSB;label=32;scalar=64";
    class       volScalarField;
    location    "100";
    object      alphat;
}
// * * * * * * * * * * * * * * * * * * * * * * * * * * * * * * * * * * * * * //

dimensions      [1 -1 -1 0 0 0 0];

internalField   nonuniform List<scalar> 
27000
(
0.00396887
0.0067345
0.00937944
0.0117319
0.0140204
0.0161653
0.0181204
0.0197767
0.0212036
0.0224204
0.0234241
0.0242225
0.0248188
0.0252154
0.0254136
0.0254145
0.025218
0.0248237
0.0242302
0.0234353
0.0224351
0.0212189
0.0197945
0.0181395
0.0161832
0.0140337
0.0117367
0.00937484
0.00672436
0.00396265
0.00576763
0.00127718
0.00519331
0.0091449
0.0132248
0.0170346
0.0206173
0.0239705
0.027043
0.0298079
0.0322285
0.0342446
0.0358023
0.036863
0.0374025
0.0374093
0.0368839
0.0358388
0.0342985
0.0322996
0.0298925
0.0271292
0.0240365
0.0206447
0.0170178
0.0131874
0.00912994
0.00520876
0.00128225
0.00576254
0.00922562
0.00723097
0.0147507
0.0270828
0.0378911
0.0466549
0.0546285
0.0623554
0.0695929
0.0761252
0.0817914
0.086461
0.0900333
0.0924472
0.0936707
0.093692
0.0925133
0.0901511
0.0866387
0.0820315
0.0764127
0.0698832
0.0625717
0.0546793
0.0464433
0.0374485
0.0266964
0.0146771
0.00718276
0.00922714
0.0121383
0.0108664
0.0264756
0.0548946
0.0814865
0.098566
0.110547
0.120621
0.12959
0.137373
0.143908
0.149173
0.153119
0.155745
0.157066
0.157096
0.155838
0.153287
0.149426
0.144245
0.137756
0.129941
0.120775
0.11025
0.0975847
0.0800377
0.0539256
0.0262776
0.0108263
0.0121447
0.0148917
0.0144567
0.0370131
0.0777767
0.116738
0.142468
0.157901
0.168397
0.176735
0.183107
0.188001
0.191979
0.194939
0.196891
0.197868
0.197895
0.196974
0.195084
0.192183
0.188233
0.183256
0.176807
0.168184
0.157101
0.141035
0.115236
0.077045
0.0368923
0.0144298
0.0149031
0.0174513
0.0183482
0.0474564
0.0956372
0.139656
0.169598
0.1873
0.197783
0.204656
0.209465
0.212928
0.2155
0.217346
0.218541
0.219135
0.219154
0.2186
0.217443
0.215624
0.213046
0.209514
0.204557
0.197384
0.186503
0.168576
0.138893
0.0954434
0.0475026
0.0183538
0.0174643
0.0197885
0.0224686
0.0582643
0.111247
0.156313
0.18629
0.204026
0.214
0.219738
0.223235
0.225481
0.226986
0.227994
0.228621
0.228928
0.22894
0.228657
0.22805
0.22705
0.225526
0.223216
0.219595
0.213669
0.203531
0.185816
0.156114
0.111362
0.0584013
0.0225052
0.0198005
0.0218734
0.0266682
0.0688354
0.125211
0.169907
0.197769
0.213922
0.222708
0.227364
0.229851
0.23122
0.232006
0.232469
0.232733
0.232857
0.232864
0.232753
0.232498
0.232035
0.231232
0.229819
0.22726
0.222523
0.213704
0.197636
0.169958
0.125434
0.0690125
0.0267211
0.021885
0.0236952
0.0308037
0.0787577
0.137375
0.180938
0.206184
0.220207
0.227505
0.231098
0.232786
0.233545
0.233873
0.234009
0.234064
0.234085
0.234088
0.234075
0.234024
0.233886
0.233547
0.232765
0.231047
0.227431
0.220148
0.206198
0.181049
0.137591
0.0789255
0.0308581
0.0237035
0.0252575
0.0347074
0.0877496
0.147596
0.188784
0.212134
0.224299
0.230228
0.232895
0.233963
0.234304
0.234353
0.234307
0.234253
0.234221
0.234223
0.234258
0.234315
0.234359
0.234306
0.233955
0.232879
0.230213
0.224307
0.212187
0.188872
0.147767
0.08789
0.0347532
0.0252627
0.0265592
0.0382245
0.0956082
0.156159
0.195324
0.216557
0.227056
0.231826
0.233749
0.234357
0.234424
0.23431
0.23417
0.234065
0.234012
0.234013
0.234068
0.234175
0.234314
0.234427
0.234358
0.23375
0.231835
0.227085
0.216618
0.195423
0.156289
0.0957154
0.038258
0.0265623
0.0276
0.0412177
0.102124
0.163011
0.200476
0.219856
0.228952
0.232796
0.234153
0.234439
0.234329
0.234126
0.233945
0.233823
0.233763
0.233764
0.233825
0.233948
0.234129
0.234333
0.234443
0.23416
0.23281
0.228981
0.219906
0.200547
0.163094
0.102191
0.0412383
0.0276018
0.0283802
0.0435691
0.107134
0.168183
0.204251
0.222195
0.230227
0.233387
0.234344
0.234415
0.2342
0.233952
0.233757
0.233632
0.233574
0.233574
0.233634
0.233759
0.233955
0.234203
0.234419
0.234351
0.233399
0.230248
0.222227
0.204292
0.168223
0.107168
0.0435793
0.0283813
0.0289002
0.0451878
0.110525
0.171621
0.206711
0.223685
0.231012
0.233728
0.234433
0.234373
0.2341
0.233833
0.233635
0.233514
0.233458
0.233458
0.233515
0.233637
0.233835
0.234103
0.234377
0.234439
0.233737
0.231025
0.223702
0.206731
0.171636
0.110537
0.0451906
0.0289008
0.0291602
0.0460131
0.112236
0.173333
0.207922
0.224409
0.231387
0.233885
0.234469
0.234348
0.234049
0.233774
0.233578
0.233459
0.233405
0.233406
0.23346
0.233579
0.233776
0.234052
0.234351
0.234472
0.23389
0.231393
0.224416
0.207928
0.173334
0.112234
0.0460108
0.0291606
0.0291603
0.0460139
0.112239
0.173336
0.207926
0.224412
0.231389
0.233886
0.23447
0.234348
0.23405
0.233775
0.233578
0.23346
0.233405
0.233406
0.23346
0.233579
0.233776
0.234052
0.23435
0.234472
0.233889
0.231391
0.224413
0.207924
0.173329
0.11223
0.0460091
0.0291606
0.0289005
0.0451905
0.110535
0.17163
0.206722
0.223694
0.231019
0.233733
0.234436
0.234375
0.234102
0.233834
0.233636
0.233515
0.233458
0.233459
0.233515
0.233637
0.233835
0.234103
0.234377
0.234437
0.233733
0.231018
0.223692
0.206717
0.171621
0.110525
0.0451853
0.0289009
0.0283807
0.0435739
0.107152
0.168202
0.204272
0.222212
0.230238
0.233394
0.234349
0.234418
0.234202
0.233953
0.233758
0.233633
0.233574
0.233574
0.233634
0.233759
0.233955
0.234203
0.234419
0.234349
0.233393
0.230236
0.222208
0.204268
0.168196
0.107148
0.0435703
0.0283815
0.0276009
0.0412257
0.102154
0.163048
0.200509
0.219881
0.228968
0.232805
0.234159
0.234442
0.234332
0.234128
0.233947
0.233824
0.233764
0.233764
0.233825
0.233948
0.234129
0.234333
0.234442
0.234157
0.232802
0.228964
0.219878
0.200511
0.163056
0.102162
0.0412254
0.0276022
0.0265605
0.0382364
0.0956507
0.156211
0.195365
0.216586
0.227073
0.231835
0.233754
0.234361
0.234427
0.234312
0.234172
0.234067
0.234012
0.234013
0.234068
0.234174
0.234314
0.234428
0.23436
0.23375
0.231829
0.227065
0.216582
0.195373
0.156236
0.0956749
0.038241
0.0265627
0.0252595
0.034723
0.0877981
0.147657
0.188816
0.21216
0.224311
0.23023
0.232895
0.233963
0.234306
0.234355
0.23431
0.234254
0.234221
0.234222
0.234256
0.234312
0.234358
0.234308
0.233962
0.232888
0.230216
0.224293
0.212147
0.18881
0.147698
0.0878375
0.0347335
0.025263
0.0236982
0.0308224
0.0788145
0.137449
0.180979
0.206201
0.2202
0.22749
0.231086
0.232781
0.233545
0.233876
0.234012
0.234065
0.234083
0.234084
0.234068
0.234016
0.233881
0.233549
0.232778
0.23107
0.227455
0.220154
0.206166
0.180975
0.137511
0.078866
0.0308398
0.0237034
0.0218775
0.0266876
0.0688964
0.125289
0.169932
0.197742
0.213867
0.222658
0.227334
0.22984
0.231221
0.232011
0.232473
0.232733
0.232852
0.232854
0.232738
0.23248
0.23202
0.231227
0.229834
0.227299
0.222579
0.21375
0.197637
0.1699
0.125362
0.0689616
0.0267117
0.0218844
0.0197923
0.0224848
0.0583156
0.111292
0.156261
0.186156
0.203884
0.213903
0.219693
0.223224
0.225487
0.226996
0.228
0.22862
0.228918
0.22892
0.228628
0.228014
0.227015
0.225503
0.223218
0.219635
0.213749
0.203623
0.185867
0.156096
0.111316
0.0583775
0.0225114
0.0197983
0.0174553
0.0183563
0.0474822
0.0955782
0.139413
0.169279
0.187057
0.197661
0.204621
0.20947
0.212948
0.215519
0.217356
0.218538
0.219119
0.219123
0.218554
0.217384
0.21556
0.212989
0.209483
0.204568
0.197453
0.186613
0.168669
0.138912
0.0954242
0.0475162
0.0183768
0.0174616
0.0148951
0.0144551
0.0369809
0.0775302
0.116233
0.141997
0.157648
0.168328
0.176746
0.183137
0.188046
0.192012
0.194954
0.196886
0.197846
0.197854
0.196913
0.195004
0.19209
0.18814
0.183186
0.176761
0.168199
0.157172
0.14113
0.115286
0.077043
0.0369108
0.0144643
0.0149006
0.0121399
0.0108592
0.0264183
0.05459
0.0810202
0.0982443
0.110449
0.120655
0.129676
0.137463
0.143979
0.149216
0.153137
0.15574
0.157041
0.157052
0.155776
0.153204
0.149327
0.144137
0.137654
0.129856
0.120727
0.110251
0.0976318
0.0801
0.0539472
0.0262825
0.010855
0.0121424
0.00922579
0.00721936
0.0147258
0.0269651
0.0377544
0.0465885
0.0546449
0.0624147
0.0696679
0.0761944
0.081843
0.0864925
0.0900463
0.0924441
0.0936534
0.0936611
0.0924689
0.0900936
0.0865699
0.081957
0.0763428
0.0698282
0.0625423
0.0546807
0.046454
0.0374589
0.0266993
0.0146485
0.00719718
0.00922546
0.00576595
0.00127876
0.00519469
0.00913832
0.0132145
0.0170323
0.020628
0.023991
0.0270674
0.0298298
0.032245
0.0342551
0.035807
0.0368625
0.0373973
0.0373996
0.0368699
0.0358212
0.0342786
0.0322805
0.0298786
0.0271255
0.0240458
0.0206656
0.0170409
0.0131971
0.00911237
0.00517819
0.00128056
0.00576302
0.00396715
0.00673188
0.00937804
0.0117329
0.0140237
0.0161698
0.0181252
0.0197811
0.0212072
0.0224239
0.0234267
0.024224
0.0248197
0.0252157
0.0254136
0.0254142
0.0252175
0.0248229
0.024229
0.0234336
0.0224322
0.0212152
0.0197901
0.0181347
0.0161785
0.0140295
0.0117337
0.00937365
0.00672492
0.00396321
0.0035242
0.00604151
0.00869294
0.0111266
0.0135423
0.0158031
0.0178609
0.0196147
0.0211372
0.0224551
0.023572
0.0244718
0.0251495
0.0256024
0.0258288
0.0258275
0.0255982
0.0251417
0.0244594
0.0235537
0.0224306
0.0211132
0.0195875
0.0178312
0.0157661
0.013513
0.0111135
0.00870086
0.00605964
0.00353709
0.00506424
0.00153296
0.00753019
0.0111483
0.0145795
0.0175264
0.0201964
0.0226263
0.0247375
0.0265323
0.0280116
0.0291884
0.03007
0.0306578
0.0309508
0.0309477
0.0306466
0.0300456
0.029144
0.0279432
0.026443
0.0246432
0.022548
0.0201424
0.0174764
0.0145711
0.0111703
0.00759999
0.00155046
0.00507854
0.0086841
0.00969079
0.0135918
0.0170566
0.0214712
0.0270911
0.0324058
0.0366573
0.040509
0.04401
0.047072
0.0496092
0.0515522
0.0528649
0.0535291
0.0535376
0.0528913
0.051598
0.0496761
0.0471579
0.0441056
0.0406119
0.0367589
0.032495
0.0273612
0.0218078
0.0171228
0.0136528
0.00990534
0.00868992
0.0116262
0.0130787
0.0182217
0.0249004
0.0342799
0.0453018
0.0556995
0.0643067
0.0715403
0.0777963
0.0832285
0.0877826
0.0912858
0.093652
0.0948513
0.0948792
0.0937391
0.0914348
0.0879874
0.0834561
0.0779491
0.0716482
0.064419
0.0559684
0.0460772
0.0353416
0.0254546
0.0182451
0.0131683
0.0116145
0.0145049
0.0155633
0.0229948
0.0355266
0.0523633
0.0715867
0.0887574
0.102024
0.11257
0.121316
0.128543
0.134103
0.13822
0.140947
0.142303
0.142322
0.141023
0.138341
0.13425
0.1287
0.121506
0.112712
0.102212
0.0891535
0.0724745
0.0535013
0.036074
0.0230518
0.0156048
0.0144826
0.0172105
0.0179589
0.0289384
0.0472717
0.0726307
0.0984575
0.120489
0.137287
0.149521
0.158651
0.165575
0.170721
0.174394
0.176772
0.177949
0.177958
0.176804
0.174441
0.170774
0.165631
0.158728
0.149651
0.13757
0.120902
0.0988101
0.0728396
0.0472714
0.0288624
0.0179226
0.0171905
0.0197124
0.020498
0.0338608
0.0584278
0.0906729
0.121528
0.145784
0.163466
0.175947
0.184725
0.190948
0.195342
0.198355
0.200252
0.201172
0.201175
0.200261
0.198368
0.195358
0.190971
0.184776
0.17607
0.163705
0.146086
0.121685
0.090683
0.0584117
0.033901
0.0204463
0.0196948
0.0220174
0.0230117
0.0387499
0.0686313
0.105862
0.139527
0.164395
0.181847
0.193741
0.201743
0.207114
0.210707
0.213057
0.214483
0.215159
0.215159
0.214484
0.213058
0.21071
0.207125
0.201777
0.193821
0.181983
0.164546
0.139623
0.105916
0.0686901
0.0388192
0.0229546
0.0219994
0.024102
0.025354
0.0436916
0.0783796
0.118822
0.153231
0.177801
0.194443
0.205383
0.21244
0.216942
0.21979
0.221555
0.222578
0.223048
0.223048
0.222576
0.221552
0.219789
0.216947
0.212458
0.205424
0.194508
0.177874
0.153303
0.118945
0.0785476
0.0437591
0.0253063
0.0240896
0.0259286
0.0274627
0.048341
0.0871968
0.130218
0.16398
0.187531
0.203042
0.212899
0.218999
0.222699
0.224905
0.226188
0.226891
0.227201
0.2272
0.226888
0.226184
0.224902
0.2227
0.219007
0.212917
0.203073
0.18757
0.164037
0.130333
0.0873428
0.048342
0.0274303
0.025921
0.0274778
0.0292947
0.0523357
0.0945154
0.138714
0.172049
0.19454
0.208903
0.217719
0.222953
0.225965
0.227647
0.228555
0.229017
0.229208
0.229207
0.229014
0.228552
0.227643
0.225963
0.222954
0.217727
0.208916
0.19456
0.17208
0.138768
0.0945951
0.0522893
0.0292759
0.0274734
0.0287344
0.0308124
0.0555718
0.10032
0.145091
0.177942
0.199496
0.212856
0.220785
0.225299
0.227762
0.229043
0.229675
0.229963
0.230072
0.230071
0.229961
0.229671
0.229039
0.227758
0.225297
0.220786
0.212861
0.199505
0.177958
0.14512
0.100361
0.0555436
0.0308048
0.0287319
0.0296867
0.0319861
0.0580666
0.104714
0.149745
0.182103
0.202881
0.215449
0.22269
0.22666
0.228718
0.229714
0.230154
0.230327
0.230382
0.230381
0.230325
0.23015
0.229709
0.228713
0.226656
0.222686
0.215448
0.202883
0.182109
0.149759
0.104732
0.0580553
0.0319849
0.0296853
0.030326
0.0327867
0.0597686
0.10766
0.152809
0.184779
0.205001
0.21702
0.223795
0.227404
0.229198
0.230011
0.230334
0.230436
0.230459
0.230458
0.230434
0.23033
0.230006
0.229192
0.227397
0.223789
0.217014
0.204997
0.184778
0.152815
0.10767
0.0597672
0.0327885
0.0303252
0.0306468
0.0331921
0.0606301
0.109134
0.154329
0.186089
0.206023
0.217762
0.224302
0.227731
0.229395
0.230121
0.230387
0.230457
0.230465
0.230464
0.230455
0.230383
0.230116
0.229389
0.227723
0.224294
0.217753
0.206014
0.186084
0.154331
0.109141
0.0606326
0.0331948
0.0306465
0.0306467
0.0331906
0.0606252
0.109129
0.154322
0.186083
0.206019
0.217759
0.224301
0.22773
0.229394
0.23012
0.230386
0.230457
0.230464
0.230463
0.230454
0.230383
0.230115
0.229387
0.227721
0.22429
0.217747
0.206006
0.186072
0.154318
0.10913
0.0606259
0.0331925
0.0306464
0.0303255
0.0327825
0.0597539
0.107643
0.152789
0.184762
0.204989
0.217013
0.22379
0.2274
0.229195
0.230009
0.230332
0.230434
0.230457
0.230456
0.230432
0.230328
0.230003
0.229188
0.227391
0.223778
0.216997
0.204971
0.184743
0.152774
0.107635
0.0597461
0.0327816
0.0303249
0.0296858
0.0319788
0.0580409
0.104688
0.149712
0.182076
0.202862
0.215437
0.222682
0.226654
0.228713
0.229709
0.23015
0.230323
0.230378
0.230377
0.23032
0.230146
0.229703
0.228705
0.226644
0.222668
0.215417
0.202836
0.182044
0.149683
0.104668
0.0580168
0.0319729
0.0296845
0.028733
0.0308008
0.0555335
0.100295
0.14505
0.177906
0.199471
0.212841
0.220774
0.225292
0.227755
0.229037
0.229668
0.229956
0.230065
0.230064
0.229953
0.229662
0.229029
0.227746
0.22528
0.220759
0.212818
0.199436
0.17786
0.145004
0.100265
0.055485
0.0307872
0.0287303
0.0274755
0.0292774
0.0522876
0.0945011
0.138673
0.172011
0.194514
0.208887
0.217709
0.222944
0.225956
0.227637
0.228545
0.229005
0.229196
0.229194
0.229
0.228536
0.227627
0.225945
0.222933
0.217696
0.208866
0.194476
0.171953
0.138612
0.0944681
0.0522109
0.029253
0.0274704
0.0259248
0.0274397
0.0483316
0.0872163
0.130204
0.163949
0.187511
0.203034
0.212893
0.218992
0.222689
0.224892
0.226172
0.226873
0.227181
0.227177
0.226864
0.226158
0.224875
0.222675
0.218984
0.212892
0.20303
0.187488
0.163896
0.130154
0.0872003
0.0482548
0.0274043
0.025916
0.024096
0.0253244
0.043699
0.078413
0.118824
0.153214
0.177804
0.194456
0.205391
0.212438
0.216932
0.219774
0.221534
0.222553
0.223019
0.223013
0.222537
0.22151
0.219746
0.21691
0.212435
0.205416
0.1945
0.177833
0.153195
0.118793
0.0784156
0.0436879
0.0252809
0.0240819
0.0220088
0.0229775
0.0387574
0.0686248
0.105855
0.139543
0.16445
0.181902
0.193773
0.20175
0.207106
0.210688
0.213031
0.21445
0.215118
0.215109
0.214425
0.212991
0.210641
0.207067
0.201748
0.193839
0.182042
0.164602
0.139605
0.105818
0.0685773
0.0387688
0.0229325
0.0219886
0.0197035
0.0204649
0.033858
0.0584061
0.0906864
0.121611
0.145926
0.163578
0.176003
0.184741
0.190944
0.195326
0.19833
0.200215
0.201122
0.20111
0.200179
0.198271
0.195249
0.190871
0.184718
0.176098
0.163841
0.146289
0.121841
0.0907071
0.058327
0.033849
0.0204317
0.0196827
0.0171999
0.0179318
0.0288762
0.0472825
0.0727803
0.0986904
0.12071
0.13743
0.149586
0.15868
0.165587
0.170723
0.174384
0.176745
0.177898
0.177885
0.176706
0.174315
0.170624
0.165473
0.158602
0.14963
0.137719
0.121222
0.0991793
0.0730645
0.0472693
0.0287825
0.017921
0.0171759
0.0144932
0.0155778
0.0230098
0.0358164
0.0530677
0.0721725
0.0889882
0.102126
0.112637
0.121386
0.128606
0.134157
0.138254
0.140951
0.142265
0.142257
0.140933
0.138219
0.134096
0.128516
0.121313
0.112592
0.102241
0.0894027
0.0729509
0.0539387
0.0361926
0.023031
0.0156519
0.0144675
0.0116198
0.0131173
0.0182436
0.0251567
0.0347944
0.045759
0.0558272
0.0643473
0.0715687
0.0778374
0.0833142
0.0878593
0.0913366
0.0936737
0.0948446
0.0948464
0.0936807
0.0913494
0.0878734
0.0833108
0.0777714
0.0714732
0.0643037
0.0560058
0.0463356
0.0357766
0.0256564
0.0182273
0.0132241
0.0116046
0.00868589
0.00977638
0.0136175
0.0170851
0.0216202
0.0271963
0.0324072
0.0366736
0.0405311
0.0440338
0.0470966
0.0496273
0.0515614
0.0528642
0.0535182
0.0535161
0.0528586
0.0515538
0.0496204
0.0470903
0.0440178
0.0405136
0.0366539
0.032402
0.027382
0.0218953
0.017076
0.0136067
0.00999277
0.00868786
0.00506926
0.00153747
0.00755516
0.011154
0.0145753
0.0175033
0.020165
0.0225877
0.024696
0.0264959
0.0279843
0.0291697
0.0300572
0.0306474
0.0309403
0.0309351
0.0306311
0.0300272
0.0291233
0.0279197
0.0264161
0.0246131
0.0225195
0.0201203
0.0174814
0.0145721
0.011143
0.00758572
0.00155299
0.00508669
0.00352901
0.00604866
0.0086957
0.0111204
0.0135297
0.0157872
0.0178482
0.0196034
0.0211275
0.0224458
0.0235651
0.0244668
0.025146
0.0255998
0.0258265
0.0258252
0.0255955
0.0251381
0.0244542
0.0235465
0.0224218
0.0211019
0.0195733
0.0178131
0.0157475
0.0134972
0.0111041
0.00870072
0.00606682
0.00354261
0.00332551
0.00566402
0.00821829
0.0106057
0.0129789
0.0152055
0.0172435
0.0189814
0.0204846
0.0217742
0.0228485
0.0237125
0.0243648
0.0248027
0.0250241
0.025028
0.0248151
0.0243874
0.023748
0.0228992
0.0218399
0.0205568
0.0190576
0.0173175
0.0152781
0.0130342
0.0106316
0.00820792
0.00562773
0.003297
0.00484802
0.00259761
0.0105
0.0163232
0.0216296
0.0261229
0.0298313
0.0327418
0.0349648
0.0366365
0.0379024
0.0388536
0.0395419
0.039995
0.0402273
0.0402458
0.0400527
0.0396443
0.0390084
0.0381117
0.0368822
0.0351961
0.0329534
0.0300395
0.0263879
0.0218966
0.01644
0.0104915
0.00257949
0.00482675
0.00828725
0.0127338
0.0171439
0.0213753
0.0250183
0.0276516
0.0305204
0.0338447
0.0369885
0.0395321
0.0414891
0.0429823
0.0441121
0.0448943
0.045313
0.0453597
0.0450495
0.044413
0.0434556
0.0420545
0.0400801
0.0375377
0.034156
0.0306833
0.0278317
0.0251831
0.0216309
0.0172576
0.0123899
0.00828635
0.011109
0.0184167
0.0237662
0.0258723
0.0290311
0.0336601
0.0406353
0.0479355
0.0539686
0.0591222
0.0631695
0.0660711
0.068176
0.0695889
0.0703045
0.0703107
0.0696116
0.06823
0.0661669
0.0632967
0.0594012
0.0541872
0.0479197
0.0402106
0.0334445
0.028929
0.0259248
0.023861
0.0182974
0.0111304
0.0138744
0.0224437
0.0267744
0.0295614
0.0362539
0.0467812
0.0595451
0.0712192
0.0802242
0.0874757
0.0932437
0.097606
0.100832
0.103049
0.10417
0.104149
0.102952
0.100711
0.0975391
0.0932062
0.0874682
0.0801584
0.0709694
0.0588061
0.0461949
0.0359578
0.0295261
0.0268361
0.0224201
0.0139192
0.0165274
0.0258316
0.0288196
0.0354834
0.0484994
0.0656401
0.0841456
0.100049
0.112599
0.122272
0.12977
0.135443
0.139547
0.142222
0.143518
0.143512
0.142164
0.139457
0.135356
0.129689
0.122185
0.112452
0.0997532
0.0836906
0.0650823
0.0479883
0.0352253
0.0288649
0.0258829
0.0165794
0.0189905
0.028407
0.0316563
0.0439217
0.0626305
0.0852124
0.108538
0.127498
0.141832
0.152411
0.160185
0.165833
0.169777
0.172279
0.173487
0.173497
0.1723
0.169807
0.16587
0.160215
0.152396
0.141713
0.127226
0.108201
0.0850979
0.0625352
0.0439394
0.0319263
0.0285168
0.0190453
0.0212343
0.0304809
0.0351525
0.0519568
0.0751079
0.102624
0.128732
0.148963
0.163809
0.174449
0.181995
0.187273
0.190839
0.193044
0.194099
0.19411
0.193075
0.190884
0.187323
0.182033
0.174447
0.163734
0.14881
0.128559
0.102522
0.0750848
0.0520942
0.035441
0.0306243
0.0212863
0.0232459
0.0321296
0.0384462
0.0585616
0.0854682
0.117294
0.144513
0.164925
0.179553
0.189791
0.196847
0.201625
0.204753
0.206639
0.207528
0.207535
0.20666
0.204784
0.201658
0.19687
0.189791
0.179519
0.164866
0.144453
0.117212
0.0854115
0.0585258
0.0385283
0.0322449
0.0232839
0.0250198
0.0334861
0.0414353
0.0642603
0.0949222
0.129272
0.156626
0.176602
0.190628
0.200234
0.206683
0.210922
0.213613
0.215192
0.215923
0.215927
0.215204
0.21363
0.21094
0.206696
0.200237
0.190622
0.176595
0.156622
0.129216
0.0948502
0.0641937
0.0415061
0.033572
0.0250446
0.0265371
0.0346154
0.0441965
0.0692267
0.103432
0.138605
0.165688
0.185018
0.198314
0.207223
0.213053
0.216773
0.219061
0.220367
0.220958
0.22096
0.220373
0.219071
0.216784
0.213062
0.20723
0.198323
0.185038
0.165723
0.138634
0.103383
0.0691853
0.0442559
0.0346738
0.0265519
0.0277776
0.0355359
0.0465883
0.0733541
0.110235
0.145629
0.172295
0.190962
0.203555
0.211811
0.21708
0.220345
0.222291
0.223367
0.223843
0.223845
0.223371
0.222297
0.220353
0.217088
0.211821
0.203569
0.190988
0.172335
0.145663
0.11021
0.0733351
0.0466243
0.0355732
0.0277861
0.0287238
0.0362452
0.0484798
0.0764786
0.115236
0.15067
0.176918
0.195006
0.207006
0.214724
0.219539
0.222442
0.22412
0.225021
0.225411
0.225412
0.225025
0.224126
0.222449
0.219547
0.214735
0.207022
0.19503
0.176951
0.150699
0.115228
0.0764776
0.0485009
0.036269
0.0287287
0.0293622
0.0367303
0.0497885
0.0785924
0.118513
0.153929
0.179857
0.197523
0.209099
0.216436
0.220932
0.223586
0.225083
0.225866
0.226197
0.226198
0.225869
0.225088
0.223593
0.220941
0.216447
0.209114
0.197545
0.179885
0.153954
0.118513
0.0785967
0.049802
0.0367468
0.0293651
0.0296834
0.0369765
0.0504564
0.0796594
0.120133
0.155529
0.181286
0.198731
0.210085
0.217225
0.221558
0.224086
0.225491
0.226215
0.226518
0.226519
0.226218
0.225497
0.224093
0.221567
0.217236
0.210099
0.198749
0.18131
0.155552
0.120138
0.0796662
0.0504673
0.03699
0.0296856
0.0296832
0.0369754
0.0504549
0.0796573
0.120133
0.155527
0.181283
0.198728
0.210082
0.217223
0.221557
0.224085
0.22549
0.226214
0.226516
0.226517
0.226216
0.225494
0.22409
0.221564
0.217231
0.210093
0.198743
0.181303
0.155546
0.120137
0.0796639
0.0504649
0.036988
0.0296851
0.0293615
0.0367267
0.0497842
0.0785862
0.118513
0.153923
0.179848
0.197514
0.20909
0.216429
0.220926
0.223581
0.225078
0.225861
0.226192
0.226193
0.225863
0.225081
0.223585
0.22093
0.216434
0.209097
0.197525
0.179863
0.153937
0.118513
0.078588
0.0497932
0.0367397
0.0293635
0.0287229
0.0362391
0.0484738
0.0764677
0.115239
0.150662
0.176904
0.194991
0.206993
0.214714
0.219529
0.222434
0.224113
0.225014
0.225403
0.225403
0.225014
0.224114
0.222434
0.219529
0.214713
0.206994
0.194995
0.176913
0.150669
0.11523
0.0764581
0.0484811
0.0362532
0.0287253
0.0277767
0.0355258
0.0465818
0.0733318
0.110245
0.145624
0.172279
0.190943
0.203538
0.211797
0.217069
0.220335
0.22228
0.223356
0.223831
0.223831
0.223355
0.222278
0.22033
0.217061
0.211787
0.203527
0.190936
0.172279
0.145621
0.11022
0.073295
0.0465876
0.0355426
0.0277798
0.0265365
0.0345986
0.0441911
0.0691945
0.103458
0.138612
0.165676
0.184999
0.198297
0.207208
0.213041
0.216762
0.21905
0.220353
0.220942
0.220941
0.220349
0.219042
0.216749
0.213021
0.207182
0.198267
0.184972
0.165658
0.138595
0.103413
0.0691215
0.0441978
0.0346207
0.0265411
0.0250203
0.0334594
0.0414183
0.0642179
0.0949649
0.129309
0.156625
0.176586
0.190612
0.200222
0.206674
0.210913
0.213602
0.215178
0.215903
0.215901
0.21517
0.213588
0.21089
0.206639
0.200173
0.190551
0.176524
0.156574
0.129263
0.0949004
0.0641027
0.0414255
0.033489
0.0250273
0.0232483
0.0320919
0.0384275
0.0585243
0.0854764
0.117331
0.144509
0.164907
0.17954
0.189786
0.196844
0.201622
0.204746
0.206625
0.207505
0.207502
0.206615
0.204726
0.201589
0.196793
0.189708
0.179435
0.164789
0.144411
0.117261
0.0853775
0.0583967
0.0384156
0.0321263
0.0232586
0.0212401
0.0304368
0.0351773
0.0520041
0.0751455
0.102658
0.128701
0.14893
0.163798
0.174456
0.182007
0.187283
0.190841
0.193036
0.194078
0.194073
0.193022
0.190815
0.187242
0.181942
0.174351
0.163641
0.148735
0.128533
0.102588
0.0750941
0.0519986
0.0352822
0.0304791
0.0212539
0.0189992
0.0283548
0.031682
0.0439581
0.0626728
0.0852336
0.10846
0.127436
0.141822
0.152435
0.16022
0.165863
0.169795
0.172283
0.173474
0.173468
0.172261
0.169759
0.165812
0.160148
0.152321
0.141637
0.127177
0.108231
0.0851981
0.0626634
0.0439507
0.0317636
0.0283886
0.019013
0.0165388
0.0257604
0.028799
0.0354854
0.0484378
0.065487
0.0840804
0.0999744
0.112594
0.122301
0.129801
0.135468
0.139566
0.142239
0.143518
0.143506
0.142194
0.139497
0.135389
0.129718
0.122209
0.112455
0.099753
0.0838522
0.0652976
0.048322
0.0354061
0.0288015
0.0257515
0.0165524
0.0138871
0.0223461
0.0267842
0.0295919
0.0360506
0.0465002
0.0594454
0.0712055
0.0802321
0.0874778
0.0932142
0.097561
0.100782
0.103017
0.104176
0.104161
0.102946
0.100663
0.0974231
0.0930689
0.0873554
0.0801207
0.0710719
0.0591763
0.0462898
0.0360427
0.029614
0.0267793
0.0222685
0.0139026
0.0111167
0.018338
0.0238798
0.0260477
0.0290897
0.0335853
0.0406234
0.0479744
0.0540496
0.059204
0.0631405
0.0660268
0.0681387
0.0695576
0.070275
0.0702634
0.0695197
0.0680688
0.0659284
0.0630315
0.0591826
0.0540504
0.0479353
0.0404639
0.0335437
0.0290404
0.0260666
0.0239366
0.0182265
0.0111245
0.00828667
0.0126535
0.0173248
0.0216484
0.0251721
0.0277049
0.0305362
0.0339222
0.0370912
0.0396202
0.0415428
0.0430128
0.0441291
0.0449009
0.0453025
0.0453144
0.0449395
0.0442022
0.0431269
0.0416939
0.0397928
0.0372362
0.0340089
0.0305745
0.0277349
0.0252093
0.0218233
0.0174342
0.0124812
0.00828656
0.00484003
0.00257416
0.010569
0.016387
0.0216477
0.0260955
0.0297705
0.0326853
0.0349215
0.0366013
0.0378747
0.0388336
0.0395267
0.0399798
0.0402066
0.0402128
0.039999
0.0395598
0.0388829
0.0379414
0.0366796
0.034987
0.0327212
0.0297867
0.0261194
0.021668
0.0164051
0.010578
0.00254729
0.00483137
0.0033214
0.00566101
0.00822685
0.0106243
0.0130039
0.0152331
0.0172661
0.0190005
0.0205
0.0217865
0.0228573
0.0237186
0.0243687
0.0248046
0.0250238
0.025025
0.0248082
0.0243751
0.0237285
0.0228712
0.0218037
0.0205168
0.0190175
0.0172846
0.0152552
0.0130227
0.010635
0.00822631
0.00565006
0.00331194
0.00332935
0.00563074
0.00802209
0.0102957
0.0126013
0.0148139
0.0168634
0.0186315
0.020164
0.0214738
0.0225598
0.0234276
0.0240785
0.0245114
0.024725
0.0247182
0.02449
0.0240401
0.0233687
0.0224773
0.0213676
0.0200408
0.0185076
0.0167632
0.0147536
0.0125835
0.0103173
0.00805301
0.00568209
0.00337583
0.00487909
0.00324006
0.00999874
0.0170091
0.0244612
0.0311535
0.0364855
0.0405712
0.0436306
0.0459159
0.0476286
0.0489223
0.0498688
0.0504864
0.0507772
0.0507388
0.0503706
0.0496752
0.0486555
0.0473103
0.0455594
0.0432208
0.0401152
0.0360282
0.0306489
0.0238393
0.0163971
0.00924514
0.00310798
0.00491208
0.00812443
0.013645
0.0159861
0.0207321
0.0270459
0.0347387
0.0405819
0.0448532
0.0477187
0.049608
0.0508001
0.0515432
0.0520173
0.0523182
0.0524668
0.0524558
0.0522826
0.0519519
0.0514508
0.0507187
0.0495852
0.0476915
0.0448468
0.0405097
0.0342999
0.0266009
0.0199459
0.015238
0.013327
0.00811115
0.0108468
0.0210198
0.0249413
0.0265192
0.0305268
0.0363276
0.0405368
0.04438
0.0481943
0.0520259
0.0549572
0.0572113
0.0587693
0.059605
0.05994
0.0598104
0.0591875
0.0580273
0.0562509
0.0538366
0.0509171
0.0479512
0.0444701
0.0408533
0.0360442
0.0301379
0.0258419
0.0245169
0.0209495
0.0108419
0.0135217
0.0270907
0.032894
0.0339354
0.0373321
0.0443319
0.0509912
0.0578903
0.064388
0.0703194
0.0756555
0.0800749
0.0831958
0.084984
0.0858168
0.0857753
0.0848539
0.0828868
0.0794485
0.0749065
0.0696724
0.0640742
0.0579773
0.0520236
0.0448663
0.0370241
0.0334568
0.0327012
0.0270689
0.0134899
0.0161126
0.0320185
0.0380704
0.0386505
0.0429825
0.0552808
0.0685235
0.0797473
0.0887162
0.0962141
0.102514
0.107599
0.111447
0.113999
0.115326
0.115327
0.114076
0.111555
0.107618
0.102453
0.0961694
0.0888021
0.0800665
0.0692136
0.0562169
0.043521
0.0388258
0.0382222
0.0320045
0.0160498
0.0185561
0.0359882
0.0413465
0.0421089
0.0507826
0.0681271
0.0866924
0.103469
0.116137
0.125802
0.133423
0.139381
0.143745
0.146497
0.147825
0.147792
0.146415
0.143669
0.139351
0.133435
0.12591
0.116416
0.10393
0.0871669
0.0683474
0.0507886
0.0421805
0.0414516
0.0359336
0.0184776
0.0207937
0.0391483
0.0430562
0.0458373
0.0602608
0.0808676
0.103576
0.124026
0.139325
0.150499
0.158686
0.164644
0.168793
0.171395
0.172643
0.172612
0.17131
0.168675
0.164538
0.158635
0.150562
0.139543
0.124339
0.103806
0.0808556
0.0599502
0.0454874
0.0431578
0.0390793
0.0207225
0.0227947
0.0417708
0.0442387
0.0505794
0.0695088
0.0925297
0.118422
0.140393
0.156741
0.168479
0.176812
0.182648
0.186588
0.189019
0.190172
0.190153
0.188967
0.186517
0.182583
0.176787
0.168526
0.156861
0.14052
0.118476
0.092454
0.069046
0.0498571
0.0443613
0.041702
0.0227416
0.0245414
0.0439319
0.0452365
0.0548876
0.0773819
0.102788
0.130869
0.153148
0.16958
0.181268
0.189429
0.195019
0.198709
0.200945
0.201995
0.201985
0.200918
0.198672
0.194986
0.189416
0.181284
0.169612
0.153146
0.130817
0.102812
0.0771717
0.0544831
0.0453225
0.04387
0.0245066
0.026023
0.0456986
0.046214
0.0588882
0.0836447
0.112073
0.140713
0.162832
0.178927
0.190261
0.198077
0.203343
0.206756
0.208791
0.209736
0.209731
0.208775
0.206734
0.203321
0.198061
0.19025
0.178904
0.162762
0.14058
0.111978
0.0835376
0.0586657
0.0462636
0.0456475
0.0260016
0.0272272
0.047106
0.0471928
0.0624078
0.0887455
0.119635
0.14825
0.169983
0.185587
0.196468
0.203885
0.208812
0.211955
0.2138
0.214648
0.214644
0.213788
0.211937
0.208791
0.203863
0.196441
0.185543
0.169903
0.148131
0.119562
0.088699
0.0622884
0.0472088
0.0470649
0.0272143
0.0281422
0.048159
0.0480546
0.0652072
0.0926392
0.12519
0.153663
0.174976
0.190123
0.200587
0.207643
0.212269
0.21518
0.216866
0.217634
0.21763
0.216856
0.215164
0.212248
0.207616
0.200553
0.190075
0.174906
0.15357
0.125137
0.0926232
0.0651488
0.0480537
0.0481269
0.0281343
0.0287581
0.048857
0.0486951