/*--------------------------------*- C++ -*----------------------------------*\
| =========                 |                                                 |
| \\      /  F ield         | OpenFOAM: The Open Source CFD Toolbox           |
|  \\    /   O peration     | Version:  2312                                  |
|   \\  /    A nd           | Website:  www.openfoam.com                      |
|    \\/     M anipulation  |                                                 |
\*---------------------------------------------------------------------------*/
FoamFile
{
    version     2.0;
    format      ascii;
    arch        "LSB;label=32;scalar=64";
    class       volScalarField;
    location    "100";
    object      epsilon;
}
// * * * * * * * * * * * * * * * * * * * * * * * * * * * * * * * * * * * * * //

dimensions      [0 2 -3 0 0 0 0];

internalField   nonuniform List<scalar> 
27000
(
0.00154701
0.000227639
0.000111543
7.00406e-05
5.17718e-05
4.14816e-05
3.48256e-05
3.0236e-05
2.69402e-05
2.45193e-05
2.2717e-05
2.14031e-05
2.04855e-05
1.99037e-05
1.96218e-05
1.96233e-05
1.99085e-05
2.0495e-05
2.14196e-05
2.27437e-05
2.45596e-05
2.69925e-05
3.03118e-05
3.49315e-05
4.16191e-05
5.19242e-05
7.01405e-05
0.000111394
0.000226599
0.00153937
0.000152163
3.29536e-05
1.40008e-05
9.27746e-06
7.16798e-06
5.97113e-06
5.15399e-06
4.54556e-06
4.08103e-06
3.72866e-06
3.46344e-06
3.26875e-06
3.13247e-06
3.04598e-06
3.00387e-06
3.00351e-06
3.04479e-06
3.13007e-06
3.26446e-06
3.45623e-06
3.71728e-06
4.06474e-06
4.5264e-06
5.13692e-06
5.96596e-06
7.18933e-06
9.34025e-06
1.40736e-05
3.28743e-05
0.000151758
0.00010036
1.55952e-05
5.09e-06
2.46884e-06
1.861e-06
1.61467e-06
1.45678e-06
1.33435e-06
1.23534e-06
1.15648e-06
1.09535e-06
1.04961e-06
1.01723e-06
9.96539e-07
9.86385e-07
9.86162e-07
9.95803e-07
1.01578e-06
1.04709e-06
1.09133e-06
1.15061e-06
1.22774e-06
1.32635e-06
1.4517e-06
1.61916e-06
1.88404e-06
2.51801e-06
5.14959e-06
1.5553e-05
0.000100472
6.6536e-05
1.03584e-05
2.80599e-06
1.3282e-06
9.46374e-07
8.28935e-07
7.73775e-07
7.34749e-07
7.02479e-07
6.75899e-07
6.54559e-07
6.38032e-07
6.2609e-07
6.18369e-07
6.14542e-07
6.14409e-07
6.17941e-07
6.25271e-07
6.36689e-07
6.52586e-07
6.73373e-07
6.99743e-07
7.32926e-07
7.75205e-07
8.37202e-07
9.64427e-07
1.35354e-06
2.82733e-06
1.03552e-05
6.66586e-05
4.90241e-05
7.30637e-06
2.04758e-06
1.01405e-06
7.20965e-07
6.21071e-07
5.8155e-07
5.60498e-07
5.45001e-07
5.33831e-07
5.25434e-07
5.18383e-07
5.13103e-07
5.09628e-07
5.07882e-07
5.07801e-07
5.0937e-07
5.12634e-07
5.17677e-07
5.2455e-07
5.33087e-07
5.44447e-07
5.60952e-07
5.84444e-07
6.27573e-07
7.30677e-07
1.02358e-06
2.05007e-06
7.29724e-06
4.91406e-05
3.84811e-05
5.65834e-06
1.64759e-06
8.72539e-07
6.38266e-07
5.50168e-07
5.14104e-07
4.9766e-07
4.88401e-07
4.82335e-07
4.78011e-07
4.74681e-07
4.72205e-07
4.70565e-07
4.69733e-07
4.69684e-07
4.70413e-07
4.71944e-07
4.74323e-07
4.77628e-07
4.82084e-07
4.88512e-07
4.98599e-07
5.16333e-07
5.53625e-07
6.41851e-07
8.73859e-07
1.64286e-06
5.64412e-06
3.85663e-05
3.15384e-05
4.63341e-06
1.40735e-06
7.85301e-07
5.93738e-07
5.18913e-07
4.86724e-07
4.7233e-07
4.6536e-07
4.61534e-07
4.59149e-07
4.57499e-07
4.56333e-07
4.55574e-07
4.55188e-07
4.5516e-07
4.5549e-07
4.56198e-07
4.57331e-07
4.59003e-07
4.61513e-07
4.65615e-07
4.7304e-07
4.87922e-07
5.2025e-07
5.94384e-07
7.83895e-07
1.40154e-06
4.61944e-06
3.15924e-05
2.66744e-05
3.93253e-06
1.24364e-06
7.24292e-07
5.62881e-07
5.0088e-07
4.73595e-07
4.61335e-07
4.55738e-07
4.5305e-07
4.5163e-07
4.50786e-07
4.50245e-07
4.49909e-07
4.49739e-07
4.49725e-07
4.49866e-07
4.50181e-07
4.50714e-07
4.51585e-07
4.53088e-07
4.55924e-07
4.61703e-07
4.74061e-07
5.01163e-07
5.62535e-07
7.2251e-07
1.23905e-06
3.92268e-06
2.67118e-05
2.31525e-05
3.42995e-06
1.12421e-06
6.79201e-07
5.40368e-07
4.88691e-07
4.661e-07
4.56036e-07
4.51593e-07
4.49633e-07
4.48736e-07
4.48288e-07
4.4804e-07
4.47897e-07
4.47827e-07
4.4782e-07
4.47877e-07
4.48011e-07
4.48259e-07
4.48725e-07
4.49662e-07
4.51682e-07
4.5617e-07
4.66197e-07
4.88593e-07
5.39885e-07
6.77823e-07
1.12123e-06
3.42383e-06
2.31729e-05
2.0582e-05
3.06412e-06
1.03552e-06
6.45686e-07
5.26199e-07
4.80601e-07
4.61438e-07
4.53191e-07
4.49697e-07
4.48256e-07
4.47668e-07
4.4742e-07
4.47305e-07
4.47247e-07
4.4722e-07
4.47217e-07
4.47238e-07
4.47293e-07
4.47409e-07
4.47664e-07
4.48267e-07
4.49722e-07
4.5321e-07
4.614e-07
4.80435e-07
5.25866e-07
6.44805e-07
1.03376e-06
3.06066e-06
2.05925e-05
1.87023e-05
2.79741e-06
9.69648e-07
6.20129e-07
5.14539e-07
4.7464e-07
4.58282e-07
4.51491e-07
4.48742e-07
4.47676e-07
4.47282e-07
4.47138e-07
4.47083e-07
4.47059e-07
4.47048e-07
4.47047e-07
4.47055e-07
4.47077e-07
4.47133e-07
4.47278e-07
4.47675e-07
4.48739e-07
4.5147e-07
4.58215e-07
4.74488e-07
5.14252e-07
6.19603e-07
9.68671e-07
2.79559e-06
1.87076e-05
1.73463e-05
2.60542e-06
9.21654e-07
6.0122e-07
5.05595e-07
4.70176e-07
4.56048e-07
4.50391e-07
4.48204e-07
4.47406e-07
4.47135e-07
4.47048e-07
4.47019e-07
4.47008e-07
4.47004e-07
4.47003e-07
4.47006e-07
4.47016e-07
4.47045e-07
4.47131e-07
4.47401e-07
4.48193e-07
4.50365e-07
4.55992e-07
4.70072e-07
5.05422e-07
6.00947e-07
9.21178e-07
2.60457e-06
1.7349e-05
1.64063e-05
2.47251e-06
8.88141e-07
5.87733e-07
4.99219e-07
4.67017e-07
4.54507e-07
4.49669e-07
4.4788e-07
4.47264e-07
4.4707e-07
4.47015e-07
4.46999e-07
4.46993e-07
4.46991e-07
4.4699e-07
4.46992e-07
4.46997e-07
4.47013e-07
4.47067e-07
4.47259e-07
4.4787e-07
4.4965e-07
4.54471e-07
4.66958e-07
4.99133e-07
5.87626e-07
8.87943e-07
2.47219e-06
1.64078e-05
1.58135e-05
2.38873e-06
8.66906e-07
5.79131e-07
4.95153e-07
4.65013e-07
4.53543e-07
4.49228e-07
4.4769e-07
4.47186e-07
4.47039e-07
4.47e-07
4.4699e-07
4.46986e-07
4.46985e-07
4.46984e-07
4.46986e-07
4.46989e-07
4.46998e-07
4.47036e-07
4.47182e-07
4.47683e-07
4.49216e-07
4.53523e-07
4.64984e-07
4.95116e-07
5.79095e-07
8.66851e-07
2.3887e-06
1.58144e-05
1.55268e-05
2.3482e-06
8.56596e-07
5.74947e-07
4.93177e-07
4.64043e-07
4.53079e-07
4.49019e-07
4.47602e-07
4.47151e-07
4.47024e-07
4.46994e-07
4.46986e-07
4.46983e-07
4.46982e-07
4.46982e-07
4.46983e-07
4.46985e-07
4.46992e-07
4.47022e-07
4.47148e-07
4.47597e-07
4.49012e-07
4.53069e-07
4.6403e-07
4.93165e-07
5.74945e-07
8.56614e-07
2.34833e-06
1.55274e-05
1.5527e-05
2.34816e-06
8.56576e-07
5.7494e-07
4.93171e-07
4.64039e-07
4.53076e-07
4.49017e-07
4.47601e-07
4.4715e-07
4.47024e-07
4.46993e-07
4.46986e-07
4.46983e-07
4.46982e-07
4.46981e-07
4.46983e-07
4.46985e-07
4.46992e-07
4.47023e-07
4.47148e-07
4.47597e-07
4.49013e-07
4.53071e-07
4.64033e-07
4.93169e-07
5.74951e-07
8.56623e-07
2.34837e-06
1.55274e-05
1.5814e-05
2.38863e-06
8.66843e-07
5.79105e-07
4.95133e-07
4.64999e-07
4.53534e-07
4.49223e-07
4.47687e-07
4.47185e-07
4.47038e-07
4.46999e-07
4.46989e-07
4.46986e-07
4.46984e-07
4.46984e-07
4.46986e-07
4.46989e-07
4.46999e-07
4.47036e-07
4.47183e-07
4.47685e-07
4.4922e-07
4.53529e-07
4.64992e-07
4.95127e-07
5.79111e-07
8.66875e-07
2.38884e-06
1.58145e-05
1.64071e-05
2.47231e-06
8.88016e-07
5.87677e-07
4.99177e-07
4.66989e-07
4.54491e-07
4.4966e-07
4.47875e-07
4.47261e-07
4.47069e-07
4.47014e-07
4.46998e-07
4.46992e-07
4.4699e-07
4.4699e-07
4.46992e-07
4.46997e-07
4.47013e-07
4.47068e-07
4.4726e-07
4.47873e-07
4.49656e-07
4.54482e-07
4.66973e-07
4.99152e-07
5.87653e-07
8.87981e-07
2.47243e-06
1.6408e-05
1.73476e-05
2.60506e-06
9.21418e-07
6.01092e-07
5.05516e-07
4.70129e-07
4.56022e-07
4.50379e-07
4.48198e-07
4.47403e-07
4.47133e-07
4.47046e-07
4.47017e-07
4.47007e-07
4.47002e-07
4.47002e-07
4.47006e-07
4.47016e-07
4.47044e-07
4.47131e-07
4.47401e-07
4.48195e-07
4.50373e-07
4.56008e-07
4.70095e-07
5.0545e-07
6.00977e-07
9.21229e-07
2.60498e-06
1.73494e-05
1.87045e-05
2.79673e-06
9.69227e-07
6.19907e-07
5.14419e-07
4.74575e-07
4.5825e-07
4.51479e-07
4.48738e-07
4.47675e-07
4.4728e-07
4.47136e-07
4.4708e-07
4.47056e-07
4.47046e-07
4.47046e-07
4.47055e-07
4.47078e-07
4.47133e-07
4.47277e-07
4.47673e-07
4.48737e-07
4.51475e-07
4.58233e-07
4.74522e-07
5.14296e-07
6.1965e-07
9.68751e-07
2.79627e-06
1.87078e-05
2.05859e-05
3.06294e-06
1.03485e-06
6.4535e-07
5.26074e-07
4.8053e-07
4.61412e-07
4.5319e-07
4.49702e-07
4.48258e-07
4.47666e-07
4.47416e-07
4.473e-07
4.47243e-07
4.47217e-07
4.47216e-07
4.47239e-07
4.47295e-07
4.47409e-07
4.47661e-07
4.48258e-07
4.49709e-07
4.53202e-07
4.61411e-07
4.80479e-07
5.25936e-07
6.44889e-07
1.0339e-06
3.06177e-06
2.05917e-05
2.31591e-05
3.42794e-06
1.12314e-06
6.78707e-07
5.40193e-07
4.88636e-07
4.66113e-07
4.56069e-07
4.51618e-07
4.49642e-07
4.48733e-07
4.48279e-07
4.4803e-07
4.4789e-07
4.47824e-07
4.47821e-07
4.47882e-07
4.48018e-07
4.48265e-07
4.48722e-07
4.49644e-07
4.51646e-07
4.56129e-07
4.66181e-07
4.88639e-07
5.40017e-07
6.77989e-07
1.12152e-06
3.42556e-06
2.31694e-05
2.66855e-05
3.92937e-06
1.24207e-06
7.23681e-07
5.62746e-07
5.00936e-07
4.73717e-07
4.61438e-07
4.55794e-07
4.53064e-07
4.5162e-07
4.50767e-07
4.50228e-07
4.49897e-07
4.49735e-07
4.4973e-07
4.49879e-07
4.502e-07
4.50733e-07
4.51592e-07
4.53066e-07
4.55863e-07
4.61609e-07
4.73978e-07
5.01168e-07
5.62699e-07
7.22803e-07
1.23959e-06
3.92514e-06
2.67019e-05
3.15526e-05
4.62894e-06
1.40545e-06
7.84826e-07
5.93903e-07
5.19286e-07
4.87065e-07
4.72537e-07
4.6544e-07
4.61536e-07
4.59115e-07
4.57458e-07
4.563e-07
4.55554e-07
4.55184e-07
4.55172e-07
4.55518e-07
4.56238e-07
4.57377e-07
4.59037e-07
4.61511e-07
4.65549e-07
4.72893e-07
4.87735e-07
5.20145e-07
5.94519e-07
7.84354e-07
1.40253e-06
4.62265e-06
3.15681e-05
3.85023e-05
5.65377e-06
1.64605e-06
8.72952e-07
6.39357e-07
5.512e-07
5.1476e-07
4.97939e-07
4.88446e-07
4.82279e-07
4.7792e-07
4.74596e-07
4.72145e-07
4.70534e-07
4.69729e-07
4.69705e-07
4.7046e-07
4.72015e-07
4.74412e-07
4.77717e-07
4.82145e-07
4.88504e-07
4.98458e-07
5.16054e-07
5.53333e-07
6.41841e-07
8.74461e-07
1.64449e-06
5.64838e-06
3.85234e-05
4.90509e-05
7.3033e-06
2.04833e-06
1.01704e-06
7.23994e-07
6.23068e-07
5.82419e-07
5.60648e-07
5.44877e-07
5.33654e-07
5.25224e-07
5.18221e-07
5.13002e-07
5.0958e-07
5.07876e-07
5.07831e-07
5.09438e-07
5.1274e-07
5.17823e-07
5.24724e-07
5.3325e-07
5.44603e-07
5.60951e-07
5.84188e-07
6.27021e-07
7.30093e-07
1.02361e-06
2.05178e-06
7.30202e-06
4.90752e-05
6.65587e-05
1.03566e-05
2.81132e-06
1.33526e-06
9.51599e-07
8.31416e-07
7.7425e-07
7.34328e-07
7.01815e-07
6.75289e-07
6.54093e-07
6.37731e-07
6.25923e-07
6.18298e-07
6.14538e-07
6.14457e-07
6.18035e-07
6.25418e-07
6.369e-07
6.52879e-07
6.73755e-07
7.00215e-07
7.33372e-07
7.75326e-07
8.36466e-07
9.62274e-07
1.3494e-06
2.82272e-06
1.03571e-05
6.65658e-05
0.000100374
1.55831e-05
5.10201e-06
2.48065e-06
1.86703e-06
1.61604e-06
1.4556e-06
1.33242e-06
1.2335e-06
1.15509e-06
1.09444e-06
1.04908e-06
1.01697e-06
9.96453e-07
9.86413e-07
9.86272e-07
9.95987e-07
1.01604e-06
1.04748e-06
1.09187e-06
1.15137e-06
1.22881e-06
1.32773e-06
1.45297e-06
1.61888e-06
1.87852e-06
2.49961e-06
5.11276e-06
1.55567e-05
0.000100333
0.000152061
3.29427e-05
1.4015e-05
9.29105e-06
7.17278e-06
5.96976e-06
5.14979e-06
4.54087e-06
4.07712e-06
3.72607e-06
3.46194e-06
3.26799e-06
3.13219e-06
3.04599e-06
3.0041e-06
3.00393e-06
3.04541e-06
3.13096e-06
3.26574e-06
3.45802e-06
3.71968e-06
4.0679e-06
4.53033e-06
5.1409e-06
5.96691e-06
7.1781e-06
9.29974e-06
1.40034e-05
3.29095e-05
0.000151926
0.00154533
0.000227427
0.000111511
7.00618e-05
5.18048e-05
4.15114e-05
3.48482e-05
3.02517e-05
2.69505e-05
2.4527e-05
2.27214e-05
2.14052e-05
2.0486e-05
1.99032e-05
1.96207e-05
1.96216e-05
1.99061e-05
2.04914e-05
2.14142e-05
2.27349e-05
2.45444e-05
2.69683e-05
3.02752e-05
3.48786e-05
4.1547e-05
5.1835e-05
7.00541e-05
0.000111386
0.000226957
0.00154241
0.00107481
0.000163193
8.85929e-05
5.97945e-05
4.67338e-05
3.88276e-05
3.33915e-05
2.95249e-05
2.66977e-05
2.4622e-05
2.31271e-05
2.20438e-05
2.12874e-05
2.08071e-05
2.0573e-05
2.05708e-05
2.07999e-05
2.12733e-05
2.20195e-05
2.30878e-05
2.45638e-05
2.66298e-05
2.94307e-05
3.32611e-05
3.86091e-05
4.64721e-05
5.95696e-05
8.86826e-05
0.000164343
0.00108399
0.00010297
2.85328e-05
2.00683e-05
1.44491e-05
1.15516e-05
9.58116e-06
8.15272e-06
7.14371e-06
6.4085e-06
5.86184e-06
5.45904e-06
5.1669e-06
4.96301e-06
4.83374e-06
4.7712e-06
4.77189e-06
4.83618e-06
4.96841e-06
5.17733e-06
5.47719e-06
5.89043e-06
6.44802e-06
7.1879e-06
8.18614e-06
9.57801e-06
1.15249e-05
1.44241e-05
2.01731e-05
2.89426e-05
0.000103555
8.37699e-05
2.07535e-05
1.15628e-05
6.54463e-06
4.14333e-06
2.97208e-06
2.35937e-06
2.01173e-06
1.78981e-06
1.63684e-06
1.52771e-06
1.44959e-06
1.39539e-06
1.36113e-06
1.34469e-06
1.34522e-06
1.3629e-06
1.399e-06
1.45606e-06
1.53834e-06
1.65259e-06
1.8101e-06
2.03194e-06
2.36775e-06
2.93492e-06
4.03355e-06
6.38336e-06
1.15673e-05
2.11104e-05
8.38695e-05
5.84982e-05
1.55945e-05
6.77638e-06
3.28959e-06
1.85873e-06
1.25824e-06
9.97678e-07
8.67749e-07
7.91359e-07
7.41136e-07
7.06217e-07
6.81699e-07
6.64774e-07
6.54068e-07
6.48945e-07
6.49172e-07
6.5481e-07
6.66235e-07
6.84173e-07
7.09961e-07
7.46063e-07
7.96832e-07
8.71235e-07
9.92635e-07
1.22605e-06
1.76758e-06
3.1552e-06
6.70511e-06
1.57232e-05
5.83455e-05
4.53695e-05
1.12111e-05
4.11646e-06
1.84303e-06
1.07101e-06
7.62463e-07
6.25626e-07
5.5928e-07
5.21143e-07
4.96077e-07
4.78716e-07
4.6739e-07
4.59829e-07
4.55121e-07
4.52929e-07
4.53069e-07
4.55514e-07
4.6056e-07
4.68531e-07
4.80232e-07
4.97541e-07
5.22352e-07
5.58641e-07
6.20006e-07
7.44842e-07
1.03393e-06
1.78855e-06
4.09177e-06
1.12773e-05
4.52035e-05
3.6953e-05
8.52994e-06
2.74225e-06
1.22303e-06
7.55754e-07
5.73898e-07
4.88353e-07
4.4473e-07
4.2112e-07
4.06962e-07
3.97867e-07
3.9198e-07
3.88177e-07
3.85865e-07
3.8479e-07
3.84873e-07
3.86112e-07
3.88609e-07
3.92597e-07
3.98588e-07
4.07553e-07
4.21152e-07
4.43326e-07
4.84667e-07
5.6752e-07
7.46485e-07
1.21528e-06
2.753e-06
8.57261e-06
3.68549e-05
3.11973e-05
6.8516e-06
2.05661e-06
9.41887e-07
6.15114e-07
4.85829e-07
4.26311e-07
3.95824e-07
3.79245e-07
3.69765e-07
3.64071e-07
3.60556e-07
3.58376e-07
3.57094e-07
3.5651e-07
3.56557e-07
3.57234e-07
3.58609e-07
3.60863e-07
3.64385e-07
3.69936e-07
3.79016e-07
3.94853e-07
4.24447e-07
4.83615e-07
6.13537e-07
9.43722e-07
2.07084e-06
6.88681e-06
3.1136e-05
2.71986e-05
5.77665e-06
1.68442e-06
7.97707e-07
5.42247e-07
4.40538e-07
3.9492e-07
3.71779e-07
3.59376e-07
3.52518e-07
3.48621e-07
3.46352e-07
3.45021e-07
3.44272e-07
3.43941e-07
3.43966e-07
3.44345e-07
3.45137e-07
3.46496e-07
3.48749e-07
3.52555e-07
3.59213e-07
3.71334e-07
3.9427e-07
4.40064e-07
5.42683e-07
8.00794e-07
1.69571e-06
5.80048e-06
2.71497e-05
2.43495e-05
5.05047e-06
1.4596e-06
7.14925e-07
4.99986e-07
4.1555e-07
3.77857e-07
3.59132e-07
3.49358e-07
3.44147e-07
3.41332e-07
3.39792e-07
3.38945e-07
3.38494e-07
3.38301e-07
3.38314e-07
3.38529e-07
3.39e-07
3.39857e-07
3.41386e-07
3.44158e-07
3.49298e-07
3.59006e-07
3.77765e-07
4.1572e-07
5.00748e-07
7.17309e-07
1.46667e-06
5.06476e-06
2.43225e-05
2.22472e-05
4.53813e-06
1.31161e-06
6.61982e-07
4.71416e-07
4.00021e-07
3.67884e-07
3.52129e-07
3.44117e-07
3.39998e-07
3.37877e-07
3.36783e-07
3.36219e-07
3.35938e-07
3.35822e-07
3.35828e-07
3.35954e-07
3.36244e-07
3.36812e-07
3.37902e-07
3.40011e-07
3.44117e-07
3.52141e-07
3.67981e-07
4.00331e-07
4.72094e-07
6.63485e-07
1.31645e-06
4.54577e-06
2.22334e-05
2.06909e-05
4.17076e-06
1.21099e-06
6.2629e-07
4.54368e-07
3.90268e-07
3.61779e-07
3.48068e-07
3.41276e-07
3.37901e-07
3.36236e-07
3.35421e-07
3.35024e-07
3.34837e-07
3.34763e-07
3.34765e-07
3.34844e-07
3.35036e-07
3.35434e-07
3.3625e-07
3.37916e-07
3.41298e-07
3.48119e-07
3.61904e-07
3.90538e-07
4.54885e-07
6.27145e-07
1.214e-06
4.17454e-06
2.0684e-05
1.95552e-05
3.90945e-06
1.14157e-06
6.01374e-07
4.43036e-07
3.83916e-07
3.5791e-07
3.45619e-07
3.39676e-07
3.3681e-07
3.35446e-07
3.34805e-07
3.34506e-07
3.34371e-07
3.34318e-07
3.34319e-07
3.34374e-07
3.34512e-07
3.34812e-07
3.35455e-07
3.36824e-07
3.397e-07
3.45666e-07
3.58005e-07
3.84091e-07
4.43326e-07
6.01797e-07
1.14297e-06
3.91105e-06
1.95516e-05
1.87596e-05
3.72977e-06
1.0943e-06
5.84023e-07
4.35262e-07
3.79685e-07
3.55419e-07
3.44111e-07
3.38749e-07
3.36224e-07
3.35055e-07
3.34521e-07
3.34279e-07
3.3417e-07
3.34129e-07
3.34129e-07
3.34172e-07
3.34281e-07
3.34525e-07
3.35061e-07
3.36235e-07
3.38768e-07
3.44145e-07
3.55481e-07
3.79786e-07
4.35411e-07
5.84232e-07
1.09489e-06
3.73026e-06
1.87578e-05
1.82536e-05
3.61691e-06
1.06482e-06
5.73066e-07
4.30323e-07
3.77037e-07
3.53898e-07
3.4322e-07
3.38225e-07
3.35912e-07
3.3486e-07
3.34388e-07
3.34176e-07
3.34082e-07
3.34046e-07
3.34046e-07
3.34083e-07
3.34178e-07
3.34391e-07
3.34865e-07
3.35921e-07
3.3824e-07
3.43244e-07
3.53937e-07
3.77094e-07
4.30397e-07
5.73152e-07
1.06502e-06
3.61687e-06
1.82527e-05
1.80073e-05
3.56249e-06
1.05067e-06
5.67779e-07
4.27924e-07
3.75756e-07
3.53172e-07
3.42802e-07
3.37986e-07
3.35775e-07
3.34778e-07
3.34334e-07
3.34136e-07
3.34048e-07
3.34013e-07
3.34014e-07
3.34048e-07
3.34137e-07
3.34336e-07
3.34782e-07
3.35781e-07
3.37998e-07
3.42821e-07
3.53199e-07
3.75792e-07
4.27962e-07
5.6781e-07
1.0507e-06
3.56221e-06
1.80069e-05
1.80071e-05
3.56266e-06
1.05075e-06
5.67806e-07
4.2794e-07
3.75766e-07
3.53177e-07
3.42805e-07
3.37988e-07
3.35775e-07
3.34778e-07
3.34334e-07
3.34136e-07
3.34048e-07
3.34013e-07
3.34014e-07
3.34048e-07
3.34137e-07
3.34336e-07
3.34782e-07
3.35781e-07
3.37998e-07
3.42822e-07
3.53201e-07
3.75798e-07
4.27974e-07
5.67831e-07
1.05077e-06
3.56239e-06
1.80067e-05
1.82528e-05
3.61742e-06
1.06507e-06
5.73154e-07
4.30375e-07
3.77067e-07
3.53914e-07
3.43228e-07
3.38229e-07
3.35914e-07
3.34861e-07
3.34389e-07
3.34177e-07
3.34083e-07
3.34046e-07
3.34046e-07
3.34083e-07
3.34178e-07
3.34391e-07
3.34865e-07
3.35921e-07
3.38241e-07
3.43248e-07
3.53946e-07
3.77114e-07
4.30435e-07
5.73226e-07
1.06523e-06
3.61745e-06
1.8252e-05
1.87582e-05
3.7307e-06
1.0948e-06
5.84195e-07
4.35364e-07
3.79742e-07
3.55449e-07
3.44125e-07
3.38756e-07
3.36228e-07
3.35057e-07
3.34522e-07
3.3428e-07
3.34172e-07
3.3413e-07
3.3413e-07
3.34173e-07
3.34282e-07
3.34525e-07
3.35061e-07
3.36235e-07
3.38771e-07
3.44154e-07
3.55501e-07
3.79828e-07
4.35493e-07
5.84387e-07
1.09532e-06
3.73144e-06
1.87561e-05
1.95527e-05
3.91104e-06
1.14248e-06
6.01659e-07
4.43214e-07
3.84012e-07
3.57957e-07
3.45639e-07
3.39685e-07
3.36815e-07
3.35449e-07
3.34808e-07
3.3451e-07
3.34374e-07
3.34321e-07
3.34321e-07
3.34376e-07
3.34513e-07
3.34812e-07
3.35455e-07
3.36824e-07
3.39703e-07
3.45679e-07
3.58039e-07
3.84166e-07
4.43476e-07
6.02076e-07
1.14378e-06
3.91318e-06
1.9548e-05
2.06865e-05
4.17342e-06
1.21265e-06
6.26784e-07
4.54658e-07
3.9041e-07
3.6184e-07
3.4809e-07
3.41284e-07
3.37906e-07
3.36242e-07
3.35428e-07
3.35032e-07
3.34844e-07
3.34769e-07
3.3477e-07
3.34848e-07
3.35039e-07
3.35436e-07
3.3625e-07
3.37914e-07
3.41298e-07
3.48132e-07
3.61951e-07
3.90658e-07
4.55143e-07
6.27653e-07
1.2155e-06
4.17812e-06
2.06767e-05
2.22393e-05
4.54241e-06
1.31376e-06
6.62756e-07
4.71783e-07
4.00191e-07
3.67936e-07
3.52134e-07
3.44114e-07
3.40001e-07
3.37888e-07
3.36799e-07
3.36236e-07
3.35952e-07
3.35835e-07
3.35838e-07
3.35963e-07
3.36251e-07
3.36816e-07
3.379e-07
3.40002e-07
3.44103e-07
3.52138e-07
3.68027e-07
4.00502e-07
4.72505e-07
6.64375e-07
1.31917e-06
4.55161e-06
2.22198e-05
2.43352e-05
5.05756e-06
1.46306e-06
7.16126e-07
5.00399e-07
4.15671e-07
3.77831e-07
3.59077e-07
3.49328e-07
3.44149e-07
3.41355e-07
3.39825e-07
3.38977e-07
3.38523e-07
3.38326e-07
3.38334e-07
3.38547e-07
3.39014e-07
3.39866e-07
3.41383e-07
3.44135e-07
3.49248e-07
3.58944e-07
3.77748e-07
4.15879e-07
5.01276e-07
7.18761e-07
1.47116e-06
5.07421e-06
2.42976e-05
2.71738e-05
5.78765e-06
1.68977e-06
7.99252e-07
5.42548e-07
4.40402e-07
3.94662e-07
3.7159e-07
3.593e-07
3.52527e-07
3.48673e-07
3.46418e-07
3.45083e-07
3.44326e-07
3.43986e-07
3.44003e-07
3.44377e-07
3.45166e-07
3.46518e-07
3.48753e-07
3.52514e-07
3.59097e-07
3.71131e-07
3.94045e-07
4.40029e-07
5.43223e-07
8.02957e-07
1.70295e-06
5.81545e-06
2.71064e-05
3.1164e-05
6.86706e-06
2.06336e-06
9.43077e-07
6.14624e-07
4.84982e-07
4.25566e-07
3.9542e-07
3.79136e-07
3.69822e-07
3.64194e-07
3.60686e-07
3.5849e-07
3.57186e-07
3.56585e-07
3.5662e-07
3.57291e-07
3.58667e-07
3.60922e-07
3.64426e-07
3.69906e-07
3.78825e-07
3.94404e-07
4.2373e-07
4.82853e-07
6.13411e-07
9.46231e-07
2.08249e-06
6.90914e-06
3.10714e-05
3.68999e-05
8.54783e-06
2.74945e-06
1.22075e-06
7.52161e-07
5.71249e-07
4.86835e-07
4.44132e-07
4.21089e-07
4.0716e-07
3.98128e-07
3.92219e-07
3.88367e-07
3.86011e-07
3.8491e-07
3.84974e-07
3.86209e-07
3.88722e-07
3.92737e-07
3.98741e-07
4.07643e-07
4.20991e-07
4.42616e-07
4.83066e-07
5.64881e-07
7.43325e-07
1.21474e-06
2.76731e-06
8.60094e-06
3.67544e-05
4.52843e-05
1.12401e-05
4.11114e-06
1.82164e-06
1.05376e-06
7.54115e-07
6.23182e-07
5.58876e-07
5.21456e-07
4.96535e-07
4.79205e-07
4.67778e-07
4.60105e-07
4.55321e-07
4.53115e-07
4.53231e-07
4.55666e-07
4.6076e-07
4.68823e-07
4.80636e-07
4.98024e-07
5.22597e-07
5.58062e-07
6.1742e-07
7.38073e-07
1.02115e-06
1.7726e-06
4.09343e-06
1.1323e-05
4.50583e-05
5.84247e-05
1.56551e-05
6.75734e-06
3.23911e-06
1.82219e-06
1.24321e-06
9.9524e-07
8.68565e-07
7.92958e-07
7.42632e-07
7.07387e-07
6.82499e-07
6.65287e-07
6.54401e-07
6.49192e-07
6.49401e-07
6.55092e-07
6.6666e-07
6.84864e-07
7.11055e-07
7.47653e-07
7.98717e-07
8.7242e-07
9.90151e-07
1.21303e-06
1.72764e-06
3.08984e-06
6.67038e-06
1.58046e-05
5.81932e-05
8.37834e-05
2.0912e-05
1.15752e-05
6.48482e-06
4.09953e-06
2.95549e-06
2.36074e-06
2.01718e-06
1.79565e-06
1.64142e-06
1.53075e-06
1.45144e-06
1.39645e-06
1.36177e-06
1.34515e-06
1.34568e-06
1.36355e-06
1.4001e-06
1.45801e-06
1.54175e-06
1.65849e-06
1.81876e-06
2.04221e-06
2.37383e-06
2.92018e-06
3.97007e-06
6.2705e-06
1.1517e-05
2.12941e-05
8.37772e-05
0.000103149
2.86708e-05
2.01222e-05
1.44449e-05
1.15394e-05
9.5746e-06
8.16002e-06
7.15621e-06
6.42002e-06
5.86993e-06
5.46391e-06
5.16948e-06
4.96425e-06
4.83439e-06
4.77175e-06
4.7727e-06
4.83766e-06
4.97109e-06
5.18201e-06
5.48531e-06
5.90371e-06
6.46759e-06
7.21208e-06
8.20666e-06
9.58342e-06
1.15053e-05
1.43828e-05
2.01842e-05
2.91317e-05
0.000103879
0.00107827
0.000163666
8.86563e-05
5.97282e-05
4.6643e-05
3.87484e-05
3.3342e-05
2.94887e-05
2.66718e-05
2.46012e-05
2.31136e-05
2.20353e-05
2.1282e-05
2.08033e-05
2.05698e-05
2.05672e-05
2.07948e-05
2.12652e-05
2.20062e-05
2.30664e-05
2.45317e-05
2.65819e-05
2.93609e-05
3.31636e-05
3.8474e-05
4.63189e-05
5.94421e-05
8.87417e-05
0.000165025
0.00108944
0.000924766
0.000136613
7.43268e-05
5.09459e-05
4.03813e-05
3.39999e-05
2.96487e-05
2.64796e-05
2.4114e-05
2.23315e-05
2.09845e-05
2.00002e-05
1.93141e-05
1.88815e-05
1.86747e-05
1.86811e-05
1.89024e-05
1.93544e-05
2.00686e-05
2.10934e-05
2.24935e-05
2.43271e-05
2.67515e-05
2.99718e-05
3.43957e-05
4.07578e-05
5.11392e-05
7.39142e-05
0.000133988
0.000902026
9.21478e-05
3.35271e-05
2.20003e-05
1.69848e-05
1.43661e-05
1.26592e-05
1.13634e-05
1.02741e-05
9.35895e-06
8.62442e-06
8.05417e-06
7.62435e-06
7.31594e-06
7.11619e-06
7.01758e-06
7.01593e-06
7.10943e-06
7.29872e-06
7.58912e-06
7.99543e-06
8.54504e-06
9.27739e-06
1.02201e-05
1.13615e-05
1.27286e-05
1.45161e-05
1.72429e-05
2.2205e-05
3.26678e-05
9.10897e-05
7.22724e-05
2.20786e-05
1.3667e-05
8.87953e-06
6.47309e-06
5.03931e-06
4.09079e-06
3.44145e-06
2.99653e-06
2.68314e-06
2.45909e-06
2.29897e-06
2.18751e-06
2.11621e-06
2.08059e-06
2.07826e-06
2.10815e-06
2.17064e-06
2.2692e-06
2.41583e-06
2.63016e-06
2.9374e-06
3.40723e-06
4.12625e-06
5.21003e-06
6.79861e-06
9.37441e-06
1.40029e-05
2.17533e-05
7.22376e-05
5.0386e-05
1.79165e-05
9.65186e-06
5.34963e-06
3.16954e-06
2.09668e-06
1.54255e-06
1.25241e-06
1.09099e-06
9.85048e-07
9.10984e-07
8.5829e-07
8.21935e-07
7.98926e-07
7.87546e-07
7.869e-07
7.96769e-07
8.17622e-07
8.51078e-07
9.00732e-07
9.72942e-07
1.08036e-06
1.25342e-06
1.58509e-06
2.22906e-06
3.42049e-06
5.70502e-06
9.9042e-06
1.77912e-05
5.05806e-05
3.91349e-05
1.37634e-05
6.79251e-06
3.3198e-06
1.71967e-06
1.04704e-06
7.5794e-07
6.2751e-07
5.62828e-07
5.23231e-07
4.96173e-07
4.77158e-07
4.64135e-07
4.55962e-07
4.51864e-07
4.516e-07
4.55276e-07
4.62856e-07
4.75169e-07
4.93523e-07
5.20456e-07
5.61456e-07
6.31594e-07
7.80169e-07
1.10473e-06
1.83311e-06
3.49961e-06
6.89125e-06
1.36473e-05
3.94237e-05
3.23352e-05
1.12293e-05
4.74905e-06
2.06177e-06
1.04641e-06
6.59933e-07
5.00686e-07
4.28328e-07
3.91388e-07
3.70195e-07
3.56505e-07
3.47141e-07
3.40819e-07
3.36903e-07
3.35015e-07
3.34865e-07
3.36531e-07
3.40185e-07
3.46243e-07
3.55436e-07
3.69295e-07
3.91464e-07
4.31107e-07
5.09135e-07
6.79598e-07
1.08194e-06
2.10287e-06
4.73468e-06
1.11467e-05
3.25916e-05
2.76502e-05
9.39156e-06
3.43527e-06
1.39372e-06
7.35693e-07
4.98883e-07
3.95737e-07
3.4823e-07
3.24183e-07
3.10954e-07
3.03056e-07
2.98046e-07
2.94829e-07
2.92883e-07
2.91944e-07
2.91854e-07
2.92626e-07
2.9441e-07
2.97497e-07
3.02471e-07
3.1056e-07
3.24401e-07
3.49684e-07
3.98941e-07
5.03074e-07
7.40423e-07
1.39116e-06
3.38961e-06
9.31505e-06
2.78516e-05
2.42651e-05
8.00058e-06
2.64997e-06
1.06239e-06
5.89611e-07
4.20246e-07
3.46348e-07
3.12225e-07
2.94908e-07
2.85582e-07
2.80292e-07
2.77154e-07
2.75259e-07
2.74163e-07
2.73644e-07
2.73596e-07
2.74023e-07
2.75036e-07
2.76873e-07
2.80013e-07
2.85419e-07
2.95018e-07
3.12742e-07
3.47198e-07
4.20854e-07
5.88613e-07
1.05365e-06
2.60951e-06
7.92689e-06
2.44092e-05
2.17744e-05
6.94656e-06
2.1723e-06
8.77186e-07
5.10989e-07
3.76346e-07
3.2006e-07
2.9387e-07
2.80599e-07
2.73566e-07
2.69722e-07
2.6757e-07
2.6635e-07
2.65682e-07
2.65377e-07
2.65355e-07
2.65616e-07
2.66245e-07
2.6744e-07
2.69598e-07
2.73487e-07
2.80602e-07
2.93932e-07
3.20026e-07
3.75903e-07
5.09156e-07
8.69918e-07
2.14816e-06
6.89314e-06
2.1858e-05
1.99523e-05
6.16318e-06
1.86825e-06
7.6531e-07
4.62104e-07
3.50113e-07
3.04863e-07
2.8374e-07
2.73103e-07
2.67558e-07
2.64623e-07
2.63057e-07
2.62222e-07
2.61791e-07
2.61603e-07
2.61593e-07
2.61762e-07
2.62176e-07
2.63001e-07
2.64566e-07
2.67509e-07
2.73054e-07
2.83637e-07
3.0458e-07
3.49476e-07
4.60304e-07
7.60746e-07
1.8532e-06
6.1322e-06
1.99972e-05
1.86202e-05
5.58765e-06
1.66336e-06
6.94202e-07
4.2975e-07
3.34276e-07
2.95768e-07
2.77893e-07
2.69003e-07
2.64459e-07
2.62125e-07
2.60931e-07
2.60328e-07
2.60035e-07
2.59914e-07
2.5991e-07
2.60023e-07
2.6031e-07
2.60907e-07
2.62097e-07
2.64426e-07
2.68946e-07
2.77764e-07
2.95472e-07
3.3366e-07
4.28632e-07
6.91797e-07
1.65539e-06
5.57236e-06
1.86432e-05
1.7659e-05
5.17345e-06
1.52393e-06
6.47775e-07
4.0876e-07
3.24373e-07
2.90181e-07
2.7442e-07
2.66694e-07
2.62826e-07
2.60893e-07
2.5994e-07
2.59481e-07
2.59269e-07
2.59186e-07
2.59184e-07
2.59264e-07
2.59474e-07
2.5993e-07
2.60879e-07
2.62803e-07
2.66649e-07
2.74321e-07
2.89974e-07
3.2399e-07
4.08175e-07
6.46638e-07
1.52029e-06
5.16711e-06
1.76707e-05
1.69917e-05
4.88819e-06
1.43151e-06
6.18065e-07
3.95326e-07
3.18066e-07
2.86698e-07
2.72328e-07
2.65374e-07
2.61954e-07
2.60284e-07
2.59485e-07
2.59113e-07
2.58948e-07
2.58885e-07
2.58885e-07
2.58946e-07
2.5911e-07
2.5948e-07
2.60276e-07
2.61939e-07
2.65343e-07
2.72265e-07
2.86573e-07
3.17852e-07
3.95032e-07
6.17517e-07
1.42997e-06
4.88613e-06
1.69977e-05
1.65698e-05
4.70968e-06
1.37503e-06
6.00153e-07
3.87274e-07
3.14274e-07
2.84631e-07
2.71121e-07
2.64644e-07
2.615e-07
2.5999e-07
2.59281e-07
2.58959e-07
2.58819e-07
2.58768e-07
2.58767e-07
2.58818e-07
2.58957e-07
2.59278e-07
2.59985e-07
2.6149e-07
2.64624e-07
2.71081e-07
2.84556e-07
3.14151e-07
3.87119e-07
5.99888e-07
1.37436e-06
4.70927e-06
1.65732e-05
1.63651e-05
4.62389e-06
1.34824e-06
5.91703e-07
3.83485e-07
3.12483e-07
2.83661e-07
2.70564e-07
2.64317e-07
2.61305e-07
2.5987e-07
2.59204e-07
2.58904e-07
2.58775e-07
2.58728e-07
2.58728e-07
2.58774e-07
2.58902e-07
2.59201e-07
2.59866e-07
2.61298e-07
2.64303e-07
2.70537e-07
2.83611e-07
3.12402e-07
3.83387e-07
5.9154e-07
1.34785e-06
4.62385e-06
1.63675e-05
1.63649e-05
4.62389e-06
1.34827e-06
5.91717e-07
3.83489e-07
3.12488e-07
2.83665e-07
2.70568e-07
2.64319e-07
2.61307e-07
2.59871e-07
2.59204e-07
2.58904e-07
2.58776e-07
2.58729e-07
2.58728e-07
2.58775e-07
2.58903e-07
2.59202e-07
2.59868e-07
2.61301e-07
2.64308e-07
2.70546e-07
2.83624e-07
3.1242e-07
3.83403e-07
5.91569e-07
1.34789e-06
4.6237e-06
1.6367e-05
1.65693e-05
4.70959e-06
1.37508e-06
6.00186e-07
3.87279e-07
3.14287e-07
2.84644e-07
2.71131e-07
2.64651e-07
2.61505e-07
2.59993e-07
2.59284e-07
2.58961e-07
2.58821e-07
2.58769e-07
2.58769e-07
2.5882e-07
2.5896e-07
2.59282e-07
2.5999e-07
2.61499e-07
2.6464e-07
2.71108e-07
2.846e-07
3.14212e-07
3.87173e-07
6.00003e-07
1.37457e-06
4.709e-06
1.65716e-05
1.69912e-05
4.88756e-06
1.43142e-06
6.18076e-07
3.95314e-07
3.18082e-07
2.86719e-07
2.72346e-07
2.65386e-07
2.61962e-07
2.60289e-07
2.59489e-07
2.59116e-07
2.58951e-07
2.58889e-07
2.58888e-07
2.5895e-07
2.59114e-07
2.59486e-07
2.60286e-07
2.61956e-07
2.65373e-07
2.72317e-07
2.8666e-07
3.17978e-07
3.95153e-07
6.17801e-07
1.43059e-06
4.88624e-06
1.69942e-05
1.76593e-05
5.17137e-06
1.52335e-06
6.47699e-07
4.08682e-07
3.24378e-07
2.90207e-07
2.74445e-07
2.66712e-07
2.62837e-07
2.609e-07
2.59945e-07
2.59485e-07
2.59274e-07
2.59191e-07
2.5919e-07
2.59272e-07
2.59483e-07
2.59943e-07
2.60897e-07
2.62833e-07
2.66699e-07
2.7441e-07
2.90124e-07
3.24215e-07
4.08408e-07
6.47266e-07
1.52181e-06
5.16843e-06
1.76638e-05
1.86225e-05
5.58241e-06
1.66149e-06
6.93772e-07
4.29499e-07
3.34237e-07
2.95791e-07
2.77924e-07
2.69026e-07
2.64472e-07
2.62131e-07
2.60935e-07
2.60332e-07
2.60041e-07
2.59922e-07
2.59921e-07
2.60037e-07
2.60328e-07
2.60931e-07
2.6213e-07
2.64474e-07
2.69023e-07
2.77895e-07
2.95688e-07
3.33989e-07
4.29009e-07
6.92952e-07
1.65847e-06
5.57604e-06
1.86304e-05
1.99594e-05
6.1519e-06
1.86401e-06
7.64038e-07
4.61536e-07
3.49968e-07
3.04885e-07
2.83786e-07
2.73132e-07
2.67568e-07
2.64623e-07
2.63054e-07
2.62222e-07
2.61796e-07
2.61614e-07
2.61612e-07
2.61788e-07
2.62212e-07
2.63047e-07
2.64624e-07
2.67585e-07
2.73162e-07
2.83801e-07
3.04814e-07
3.49681e-07
4.60753e-07
7.62495e-07
1.85828e-06
6.13934e-06
1.99742e-05
2.1792e-05
6.92512e-06
2.16315e-06
8.74397e-07
5.10267e-07
3.76225e-07
3.20169e-07
2.93972e-07
2.80643e-07
2.73565e-07
2.69703e-07
2.67549e-07
2.66337e-07
2.65682e-07
2.65391e-07
2.65385e-07
2.65664e-07
2.66312e-07