/*--------------------------------*- C++ -*----------------------------------*\
| =========                 |                                                 |
| \\      /  F ield         | OpenFOAM: The Open Source CFD Toolbox           |
|  \\    /   O peration     | Version:  2312                                  |
|   \\  /    A nd           | Website:  www.openfoam.com                      |
|    \\/     M anipulation  |                                                 |
\*---------------------------------------------------------------------------*/
FoamFile
{
    version     2.0;
    format      ascii;
    arch        "LSB;label=32;scalar=64";
    class       volScalarField;
    location    "100";
    object      k;
}
// * * * * * * * * * * * * * * * * * * * * * * * * * * * * * * * * * * * * * //

dimensions      [0 2 -2 0 0 0 0];

internalField   nonuniform List<scalar> 
27000
(
0.000261191
0.000130513
0.000107817
9.55514e-05
8.98061e-05
8.63173e-05
8.3736e-05
8.15114e-05
7.9668e-05
7.81545e-05
7.68929e-05
7.58974e-05
7.51609e-05
7.46755e-05
7.44358e-05
7.44399e-05
7.46885e-05
7.51857e-05
7.59386e-05
7.69565e-05
7.82445e-05
7.97741e-05
8.16501e-05
8.39073e-05
8.65082e-05
8.99807e-05
9.56393e-05
0.000107719
0.000130117
0.000260341
9.87489e-05
2.1625e-05
2.84235e-05
3.07031e-05
3.24542e-05
3.36181e-05
3.4361e-05
3.47945e-05
3.5018e-05
3.51415e-05
3.5217e-05
3.52668e-05
3.53002e-05
3.53214e-05
3.53321e-05
3.53332e-05
3.53245e-05
3.53047e-05
3.52713e-05
3.52192e-05
3.51376e-05
3.50037e-05
3.47689e-05
3.43268e-05
3.3587e-05
3.24566e-05
3.07817e-05
2.85396e-05
2.16418e-05
9.85738e-05
0.000101428
3.53975e-05
2.88831e-05
2.72566e-05
2.79912e-05
2.89314e-05
2.97362e-05
3.04053e-05
3.09068e-05
3.1276e-05
3.15507e-05
3.17543e-05
3.18999e-05
3.19943e-05
3.20408e-05
3.20408e-05
3.19939e-05
3.1898e-05
3.17488e-05
3.15389e-05
3.12554e-05
3.08758e-05
3.03666e-05
2.96981e-05
2.89058e-05
2.79989e-05
2.73297e-05
2.89792e-05
3.52315e-05
0.000101493
9.47296e-05
3.53644e-05
2.87306e-05
2.84627e-05
2.9272e-05
3.01302e-05
3.0829e-05
3.13805e-05
3.18039e-05
3.21196e-05
3.23516e-05
3.25196e-05
3.26371e-05
3.27122e-05
3.27488e-05
3.27484e-05
3.27107e-05
3.26336e-05
3.25129e-05
3.23406e-05
3.21042e-05
3.17849e-05
3.13616e-05
3.0816e-05
3.0129e-05
2.9286e-05
2.84781e-05
2.87316e-05
3.52938e-05
9.48418e-05
9.0065e-05
3.42582e-05
2.90186e-05
2.96028e-05
3.05804e-05
3.13551e-05
3.19422e-05
3.23842e-05
3.27144e-05
3.29559e-05
3.31298e-05
3.3253e-05
3.33373e-05
3.33901e-05
3.34155e-05
3.34151e-05
3.33887e-05
3.33344e-05
3.3248e-05
3.31223e-05
3.29463e-05
3.27044e-05
3.23768e-05
3.19404e-05
3.13598e-05
3.05869e-05
2.96014e-05
2.89888e-05
3.42049e-05
9.02064e-05
8.63805e-05
3.39641e-05
2.94748e-05
3.04498e-05
3.1471e-05
3.21986e-05
3.27095e-05
3.30704e-05
3.33257e-05
3.35049e-05
3.3629e-05
3.37134e-05
3.37691e-05
3.3803e-05
3.3819e-05
3.38187e-05
3.38021e-05
3.37673e-05
3.37105e-05
3.36248e-05
3.35001e-05
3.33214e-05
3.30682e-05
3.27105e-05
3.22021e-05
3.14728e-05
3.04419e-05
2.94467e-05
3.39265e-05
8.65084e-05
8.32732e-05
3.40108e-05
3.01843e-05
3.1156e-05
3.21125e-05
3.27733e-05
3.32172e-05
3.35126e-05
3.37075e-05
3.38346e-05
3.39165e-05
3.39683e-05
3.40002e-05
3.40186e-05
3.4027e-05
3.40268e-05
3.40182e-05
3.39994e-05
3.39668e-05
3.39145e-05
3.38324e-05
3.37057e-05
3.35119e-05
3.32176e-05
3.27737e-05
3.21094e-05
3.11441e-05
3.01573e-05
3.39871e-05
8.33697e-05
8.05164e-05
3.4136e-05
3.08412e-05
3.17436e-05
3.25981e-05
3.3176e-05
3.35514e-05
3.37874e-05
3.3931e-05
3.40153e-05
3.4063e-05
3.4089e-05
3.41025e-05
3.41091e-05
3.41117e-05
3.41117e-05
3.41089e-05
3.41022e-05
3.40884e-05
3.40622e-05
3.40144e-05
3.39302e-05
3.37868e-05
3.35508e-05
3.31743e-05
3.2593e-05
3.17328e-05
3.08238e-05
3.41269e-05
8.05942e-05
7.80743e-05
3.42629e-05
3.13652e-05
3.21982e-05
3.29601e-05
3.34598e-05
3.37702e-05
3.39527e-05
3.40526e-05
3.41025e-05
3.4124e-05
3.41309e-05
3.41314e-05
3.41299e-05
3.41288e-05
3.41288e-05
3.41299e-05
3.41313e-05
3.41307e-05
3.41237e-05
3.41021e-05
3.40522e-05
3.39521e-05
3.37692e-05
3.34576e-05
3.29554e-05
3.21908e-05
3.13571e-05
3.42625e-05
7.81222e-05
7.60008e-05
3.4375e-05
3.17746e-05
3.25407e-05
3.32228e-05
3.36571e-05
3.39117e-05
3.40485e-05
3.41129e-05
3.41362e-05
3.41387e-05
3.41328e-05
3.41251e-05
3.41189e-05
3.41156e-05
3.41156e-05
3.41189e-05
3.41251e-05
3.41328e-05
3.41387e-05
3.41361e-05
3.41127e-05
3.40481e-05
3.39109e-05
3.36554e-05
3.322e-05
3.25373e-05
3.1773e-05
3.43782e-05
7.60278e-05
7.42905e-05
3.44689e-05
3.20947e-05
3.28022e-05
3.34168e-05
3.37946e-05
3.40025e-05
3.41024e-05
3.41391e-05
3.41429e-05
3.41327e-05
3.41189e-05
3.41066e-05
3.4098e-05
3.40937e-05
3.40938e-05
3.40981e-05
3.41067e-05
3.4119e-05
3.41328e-05
3.41429e-05
3.4139e-05
3.41022e-05
3.40022e-05
3.37939e-05
3.3416e-05
3.28019e-05
3.20965e-05
3.44728e-05
7.43054e-05
7.29351e-05
3.4543e-05
3.2339e-05
3.29992e-05
3.35592e-05
3.38905e-05
3.40609e-05
3.4132e-05
3.41481e-05
3.41385e-05
3.41202e-05
3.4102e-05
3.40878e-05
3.40784e-05
3.40739e-05
3.40739e-05
3.40785e-05
3.40879e-05
3.41022e-05
3.41203e-05
3.41386e-05
3.41482e-05
3.4132e-05
3.4061e-05
3.38906e-05
3.35594e-05
3.30001e-05
3.23413e-05
3.4546e-05
7.29432e-05
7.19269e-05
3.45969e-05
3.25149e-05
3.31406e-05
3.36594e-05
3.39557e-05
3.40979e-05
3.41479e-05
3.41497e-05
3.41313e-05
3.41083e-05
3.40881e-05
3.40733e-05
3.4064e-05
3.40596e-05
3.40596e-05
3.40641e-05
3.40734e-05
3.40882e-05
3.41084e-05
3.41315e-05
3.41498e-05
3.4148e-05
3.40981e-05
3.3956e-05
3.36599e-05
3.31415e-05
3.25165e-05
3.45987e-05
7.19315e-05
7.12596e-05
3.46316e-05
3.26283e-05
3.32316e-05
3.37233e-05
3.39962e-05
3.41197e-05
3.41561e-05
3.41489e-05
3.41253e-05
3.40998e-05
3.40789e-05
3.40641e-05
3.40551e-05
3.4051e-05
3.4051e-05
3.40552e-05
3.40642e-05
3.4079e-05
3.41e-05
3.41255e-05
3.41491e-05
3.41562e-05
3.41199e-05
3.39964e-05
3.37237e-05
3.32321e-05
3.2629e-05
3.46325e-05
7.12623e-05
7.09276e-05
3.46487e-05
3.26838e-05
3.32762e-05
3.37544e-05
3.40156e-05
3.41299e-05
3.41595e-05
3.41481e-05
3.41221e-05
3.40956e-05
3.40744e-05
3.40597e-05
3.4051e-05
3.4047e-05
3.4047e-05
3.40511e-05
3.40598e-05
3.40745e-05
3.40957e-05
3.41222e-05
3.41482e-05
3.41596e-05
3.413e-05
3.40157e-05
3.37545e-05
3.32762e-05
3.26838e-05
3.46488e-05
7.09293e-05
7.09281e-05
3.46488e-05
3.26839e-05
3.32762e-05
3.37545e-05
3.40157e-05
3.41299e-05
3.41596e-05
3.41482e-05
3.41221e-05
3.40956e-05
3.40744e-05
3.40598e-05
3.4051e-05
3.4047e-05
3.4047e-05
3.40511e-05
3.40598e-05
3.40745e-05
3.40957e-05
3.41222e-05
3.41482e-05
3.41596e-05
3.41299e-05
3.40155e-05
3.37542e-05
3.32759e-05
3.26834e-05
3.46485e-05
7.09294e-05
7.1261e-05
3.46319e-05
3.26286e-05
3.32319e-05
3.37235e-05
3.39964e-05
3.41199e-05
3.41562e-05
3.4149e-05
3.41254e-05
3.40999e-05
3.40789e-05
3.40641e-05
3.40551e-05
3.4051e-05
3.4051e-05
3.40552e-05
3.40642e-05
3.4079e-05
3.41e-05
3.41255e-05
3.4149e-05
3.41561e-05
3.41196e-05
3.39959e-05
3.37229e-05
3.32311e-05
3.26278e-05
3.46314e-05
7.12627e-05
7.19294e-05
3.45974e-05
3.25154e-05
3.31409e-05
3.36597e-05
3.39559e-05
3.40981e-05
3.41481e-05
3.41498e-05
3.41315e-05
3.41084e-05
3.40882e-05
3.40733e-05
3.4064e-05
3.40596e-05
3.40596e-05
3.40641e-05
3.40734e-05
3.40882e-05
3.41084e-05
3.41314e-05
3.41497e-05
3.41478e-05
3.40976e-05
3.39551e-05
3.36586e-05
3.31396e-05
3.25142e-05
3.45968e-05
7.19324e-05
7.2939e-05
3.45439e-05
3.23396e-05
3.29994e-05
3.35593e-05
3.38907e-05
3.40611e-05
3.41322e-05
3.41483e-05
3.41386e-05
3.41203e-05
3.41021e-05
3.40878e-05
3.40785e-05
3.40739e-05
3.40739e-05
3.40785e-05
3.40879e-05
3.41022e-05
3.41203e-05
3.41386e-05
3.41481e-05
3.41317e-05
3.40603e-05
3.38893e-05
3.35573e-05
3.29971e-05
3.23376e-05
3.45433e-05
7.29445e-05
7.42969e-05
3.44701e-05
3.20949e-05
3.28018e-05
3.34165e-05
3.37945e-05
3.40027e-05
3.41026e-05
3.41393e-05
3.4143e-05
3.41328e-05
3.41189e-05
3.41067e-05
3.4098e-05
3.40937e-05
3.40937e-05
3.40981e-05
3.41067e-05
3.4119e-05
3.41328e-05
3.4143e-05
3.4139e-05
3.4102e-05
3.40014e-05
3.37923e-05
3.34132e-05
3.27976e-05
3.2091e-05
3.44693e-05
7.43064e-05
7.60109e-05
3.43761e-05
3.17731e-05
3.2539e-05
3.32217e-05
3.36567e-05
3.39117e-05
3.40487e-05
3.41131e-05
3.41363e-05
3.41388e-05
3.41328e-05
3.4125e-05
3.41188e-05
3.41155e-05
3.41155e-05
3.41188e-05
3.4125e-05
3.41328e-05
3.41387e-05
3.41362e-05
3.41128e-05
3.4048e-05
3.39102e-05
3.36538e-05
3.32168e-05
3.25319e-05
3.17657e-05
3.43747e-05
7.6027e-05
7.80904e-05
3.42632e-05
3.13616e-05
3.21952e-05
3.29585e-05
3.34593e-05
3.37701e-05
3.39527e-05
3.40527e-05
3.41025e-05
3.41239e-05
3.41308e-05
3.41312e-05
3.41297e-05
3.41285e-05
3.41285e-05
3.41296e-05
3.4131e-05
3.41306e-05
3.41237e-05
3.41023e-05
3.40526e-05
3.39524e-05
3.37691e-05
3.34565e-05
3.29527e-05
3.21854e-05
3.13492e-05
3.4261e-05
7.81163e-05
8.05405e-05
3.41346e-05
3.08355e-05
3.17401e-05
3.25966e-05
3.31757e-05
3.35514e-05
3.37874e-05
3.39309e-05
3.40151e-05
3.40627e-05
3.40886e-05
3.41021e-05
3.41086e-05
3.41112e-05
3.41111e-05
3.41083e-05
3.41016e-05
3.4088e-05
3.40621e-05
3.40147e-05
3.39308e-05
3.37876e-05
3.35514e-05
3.31745e-05
3.25922e-05
3.17301e-05
3.08192e-05
3.41316e-05
8.05782e-05
8.33e-05
3.40067e-05
3.01772e-05
3.11529e-05
3.21116e-05
3.27733e-05
3.32172e-05
3.35124e-05
3.37069e-05
3.38339e-05
3.39157e-05
3.39675e-05
3.39994e-05
3.40178e-05
3.40261e-05
3.40258e-05
3.4017e-05
3.39982e-05
3.39659e-05
3.3914e-05
3.38326e-05
3.37064e-05
3.3513e-05
3.32188e-05
3.2775e-05
3.21112e-05
3.11469e-05
3.01618e-05
3.40037e-05
8.3333e-05
8.64144e-05
3.39579e-05
2.9469e-05
3.04476e-05
3.14704e-05
3.21984e-05
3.27091e-05
3.30695e-05
3.33244e-05
3.35034e-05
3.36274e-05
3.37119e-05
3.37677e-05
3.38017e-05
3.38175e-05
3.38171e-05
3.38002e-05
3.37653e-05
3.37086e-05
3.36235e-05
3.34998e-05
3.3322e-05
3.30693e-05
3.27113e-05
3.22025e-05
3.14747e-05
3.04494e-05
2.94656e-05
3.39607e-05
8.64537e-05
9.00999e-05
3.4249e-05
2.90113e-05
2.95994e-05
3.05781e-05
3.13535e-05
3.19404e-05
3.23818e-05
3.27116e-05
3.29531e-05
3.31271e-05
3.32507e-05
3.33353e-05
3.33882e-05
3.34134e-05
3.34127e-05
3.33858e-05
3.33311e-05
3.32446e-05
3.31196e-05
3.29451e-05
3.27049e-05
3.23782e-05
3.19406e-05
3.13567e-05
3.05813e-05
2.96014e-05
2.90082e-05
3.4257e-05
9.01386e-05
9.47522e-05
3.53497e-05
2.87268e-05
2.84589e-05
2.92686e-05
3.0126e-05
3.08248e-05
3.1376e-05
3.17995e-05
3.21156e-05
3.2348e-05
3.25166e-05
3.26346e-05
3.27098e-05
3.27461e-05
3.27451e-05
3.27066e-05
3.26287e-05
3.25075e-05
3.23358e-05
3.21014e-05
3.17853e-05
3.13649e-05
3.08186e-05
3.0123e-05
2.92647e-05
2.84403e-05
2.87109e-05
3.53436e-05
9.47669e-05
0.000101436
3.53553e-05
2.88927e-05
2.72623e-05
2.79859e-05
2.89231e-05
2.97286e-05
3.03978e-05
3.09005e-05
3.12714e-05
3.15475e-05
3.17521e-05
3.18982e-05
3.19924e-05
3.20383e-05
3.20374e-05
3.19892e-05
3.1892e-05
3.1742e-05
3.15325e-05
3.12514e-05
3.08771e-05
3.03753e-05
2.97115e-05
2.89066e-05
2.79617e-05
2.72311e-05
2.88472e-05
3.52711e-05
0.000101413
9.87012e-05
2.16348e-05
2.84417e-05
3.07146e-05
3.24525e-05
3.36119e-05
3.4356e-05
3.47914e-05
3.5017e-05
3.51422e-05
3.52184e-05
3.52681e-05
3.53009e-05
3.53212e-05
3.5331e-05
3.53311e-05
3.53214e-05
3.53011e-05
3.5268e-05
3.52178e-05
3.51408e-05
3.50149e-05
3.47907e-05
3.43576e-05
3.36125e-05
3.24432e-05
3.06853e-05
2.83847e-05
2.16391e-05
9.86324e-05
0.000260993
0.000130427
0.000107794
9.55701e-05
8.98452e-05
8.63604e-05
8.37743e-05
8.15415e-05
7.969e-05
7.8173e-05
7.69044e-05
7.59034e-05
7.51631e-05
7.46752e-05
7.44337e-05
7.44363e-05
7.46832e-05
7.51781e-05
7.59272e-05
7.69387e-05
7.82151e-05
7.97312e-05
8.15916e-05
8.38328e-05
8.64207e-05
8.989e-05
9.55682e-05
0.000107708
0.000130225
0.000260617
0.000205151
0.000104665
9.25042e-05
8.59786e-05
8.38571e-05
8.25696e-05
8.14044e-05
8.02165e-05
7.91843e-05
7.83786e-05
7.78283e-05
7.74202e-05
7.71266e-05
7.69353e-05
7.68387e-05
7.68325e-05
7.69155e-05
7.70892e-05
7.7358e-05
7.77319e-05
7.82432e-05
7.90386e-05
8.00328e-05
8.11777e-05
8.22405e-05
8.35316e-05
8.57662e-05
9.25932e-05
0.000105191
0.000206402
7.61185e-05
2.20453e-05
4.09767e-05
4.23061e-05
4.32585e-05
4.31951e-05
4.27727e-05
4.23787e-05
4.19696e-05
4.15703e-05
4.12198e-05
4.09354e-05
4.0721e-05
4.0578e-05
4.05069e-05
4.05078e-05
4.05809e-05
4.07266e-05
4.09455e-05
4.12378e-05
4.16013e-05
4.20185e-05
4.2436e-05
4.2803e-05
4.31263e-05
4.3196e-05
4.23113e-05
4.12735e-05
2.23295e-05
7.64422e-05
8.99053e-05
4.7272e-05
4.17878e-05
3.52182e-05
3.144e-05
2.99104e-05
2.91466e-05
2.86249e-05
2.8383e-05
2.82916e-05
2.8267e-05
2.82672e-05
2.82716e-05
2.82756e-05
2.82803e-05
2.82881e-05
2.8301e-05
2.83207e-05
2.83493e-05
2.83911e-05
2.84582e-05
2.85796e-05
2.88081e-05
2.92385e-05
2.98706e-05
3.12628e-05
3.48491e-05
4.18896e-05
4.82016e-05
8.99888e-05
8.69299e-05
4.76044e-05
3.70401e-05
3.01684e-05
2.66076e-05
2.51662e-05
2.48485e-05
2.49003e-05
2.50808e-05
2.53109e-05
2.55555e-05
2.57857e-05
2.59667e-05
2.60885e-05
2.6152e-05
2.61604e-05
2.61154e-05
2.60165e-05
2.58626e-05
2.56581e-05
2.54198e-05
2.51863e-05
2.4972e-05
2.48453e-05
2.50539e-05
2.63458e-05
2.98728e-05
3.68684e-05
4.79639e-05
8.67727e-05
8.55101e-05
4.40305e-05
3.24306e-05
2.69725e-05
2.49625e-05
2.46266e-05
2.48392e-05
2.51794e-05
2.55311e-05
2.5859e-05
2.61482e-05
2.63899e-05
2.65743e-05
2.66975e-05
2.67609e-05
2.67669e-05
2.67162e-05
2.66071e-05
2.64366e-05
2.62055e-05
2.59174e-05
2.55767e-05
2.51881e-05
2.47825e-05
2.44908e-05
2.47917e-05
2.67748e-05
3.23733e-05
4.42193e-05
8.52879e-05
8.40622e-05
4.12564e-05
2.96941e-05
2.53454e-05
2.46961e-05
2.50565e-05
2.55694e-05
2.60461e-05
2.64504e-05
2.67841e-05
2.70548e-05
2.7268e-05
2.74258e-05
2.75298e-05
2.75828e-05
2.75865e-05
2.75411e-05
2.74447e-05
2.72937e-05
2.7084e-05
2.68101e-05
2.6463e-05
2.60317e-05
2.55163e-05
2.49615e-05
2.45795e-05
2.52649e-05
2.97131e-05
4.13176e-05
8.39017e-05
8.26623e-05
3.9503e-05
2.78166e-05
2.47279e-05
2.4894e-05
2.56129e-05
2.62783e-05
2.68129e-05
2.72289e-05
2.75489e-05
2.77927e-05
2.79746e-05
2.81041e-05
2.81876e-05
2.82292e-05
2.82313e-05
2.81937e-05
2.81142e-05
2.79876e-05
2.78063e-05
2.75591e-05
2.72301e-05
2.67995e-05
2.62479e-05
2.55709e-05
2.48635e-05
2.47486e-05
2.79292e-05
3.95545e-05
8.25441e-05
8.1571e-05
3.84318e-05
2.69302e-05
2.46639e-05
2.5255e-05
2.61337e-05
2.68582e-05
2.74078e-05
2.7814e-05
2.81105e-05
2.83244e-05
2.84759e-05
2.85791e-05
2.86435e-05
2.86748e-05
2.86758e-05
2.86466e-05
2.8584e-05
2.8482e-05
2.83303e-05
2.81143e-05
2.78135e-05
2.74016e-05
2.68485e-05
2.61285e-05
2.52715e-05
2.47221e-05
2.70444e-05
3.84632e-05
8.14643e-05
8.07514e-05
3.77196e-05
2.66192e-05
2.49523e-05
2.56924e-05
2.65989e-05
2.73218e-05
2.7855e-05
2.82356e-05
2.85015e-05
2.8684e-05
2.88064e-05
2.88857e-05
2.89331e-05
2.89555e-05
2.89559e-05
2.89345e-05
2.88879e-05
2.88091e-05
2.86865e-05
2.85032e-05
2.8236e-05
2.78547e-05
2.73241e-05
2.66106e-05
2.57254e-05
2.50206e-05
2.67042e-05
3.77375e-05
8.06858e-05
8.00583e-05
3.72125e-05
2.65423e-05
2.53252e-05
2.61166e-05
2.69971e-05
2.76867e-05
2.81853e-05
2.85311e-05
2.87632e-05
2.89146e-05
2.90104e-05
2.90686e-05
2.91016e-05
2.91164e-05
2.91166e-05
2.91021e-05
2.90695e-05
2.90114e-05
2.89157e-05
2.87643e-05
2.85324e-05
2.81879e-05
2.76932e-05
2.70122e-05
2.61469e-05
2.53751e-05
2.65915e-05
3.72218e-05
8.00217e-05
7.94803e-05
3.68452e-05
2.65367e-05
2.56459e-05
2.64632e-05
2.73141e-05
2.79644e-05
2.84238e-05
2.87329e-05
2.89321e-05
2.9055e-05
2.91276e-05
2.91684e-05
2.91897e-05
2.91986e-05
2.91987e-05
2.91898e-05
2.91687e-05
2.9128e-05
2.90555e-05
2.89328e-05
2.87344e-05
2.84269e-05
2.79706e-05
2.7326e-05
2.64834e-05
2.56742e-05
2.65579e-05
3.68501e-05
7.94606e-05
7.90152e-05
3.65847e-05
2.65495e-05
2.58908e-05
2.6725e-05
2.75509e-05
2.81665e-05
2.85904e-05
2.88666e-05
2.9037e-05
2.9136e-05
2.91899e-05
2.92171e-05
2.92296e-05
2.92342e-05
2.92342e-05
2.92295e-05
2.92171e-05
2.919e-05
2.91362e-05
2.90374e-05
2.88677e-05
2.85927e-05
2.81709e-05
2.75585e-05
2.67365e-05
2.59051e-05
2.65591e-05
3.65877e-05
7.90047e-05
7.86632e-05
3.64083e-05
2.65712e-05
2.60673e-05
2.6911e-05
2.77172e-05
2.83054e-05
2.87012e-05
2.89513e-05
2.90992e-05
2.91801e-05
2.92202e-05
2.92377e-05
2.92439e-05
2.92455e-05
2.92455e-05
2.92438e-05
2.92375e-05
2.92201e-05
2.91801e-05
2.90994e-05
2.89519e-05
2.87026e-05
2.8308e-05
2.77213e-05
2.69169e-05
2.60742e-05
2.65757e-05
3.641e-05
7.86576e-05
7.8426e-05
3.62992e-05
2.65921e-05
2.61823e-05
2.70303e-05
2.78225e-05
2.8392e-05
2.87684e-05
2.90006e-05
2.91333e-05
2.92022e-05
2.92334e-05
2.92446e-05
2.9247e-05
2.92468e-05
2.92468e-05
2.92469e-05
2.92444e-05
2.92332e-05
2.9202e-05
2.91333e-05
2.90008e-05
2.8769e-05
2.83932e-05
2.78246e-05
2.70332e-05
2.61855e-05
2.65943e-05
3.62999e-05
7.84231e-05
7.83062e-05
3.6247e-05
2.66046e-05
2.62391e-05
2.70886e-05
2.78736e-05
2.84334e-05
2.88e-05
2.90232e-05
2.91483e-05
2.92112e-05
2.9238e-05
2.92462e-05
2.92468e-05
2.92458e-05
2.92457e-05
2.92467e-05
2.9246e-05
2.92377e-05
2.92109e-05
2.91481e-05
2.90231e-05
2.88001e-05
2.84339e-05
2.78745e-05
2.70899e-05
2.62406e-05
2.66055e-05
3.62471e-05
7.83048e-05
7.83054e-05
3.62471e-05
2.66045e-05
2.6239e-05
2.70885e-05
2.78735e-05
2.84333e-05
2.87999e-05
2.90231e-05
2.91483e-05
2.92112e-05
2.92379e-05
2.92462e-05
2.92468e-05
2.92457e-05
2.92457e-05
2.92466e-05
2.9246e-05
2.92377e-05
2.92109e-05
2.9148e-05
2.90229e-05
2.87998e-05
2.84334e-05
2.78738e-05
2.70891e-05
2.62397e-05
2.66049e-05
3.62468e-05
7.83043e-05
7.84237e-05
3.62994e-05
2.6592e-05
2.61823e-05
2.70301e-05
2.78224e-05
2.83918e-05
2.87682e-05
2.90005e-05
2.91332e-05
2.92021e-05
2.92332e-05
2.92445e-05
2.92469e-05
2.92467e-05
2.92467e-05
2.92467e-05
2.92443e-05
2.9233e-05
2.92018e-05
2.91329e-05
2.90002e-05
2.8768e-05
2.83918e-05
2.78226e-05
2.70307e-05
2.61829e-05
2.65922e-05
3.6299e-05
7.84212e-05
7.86591e-05
3.64087e-05
2.65713e-05
2.60679e-05
2.69112e-05
2.77172e-05
2.83053e-05
2.8701e-05
2.8951e-05
2.9099e-05
2.91799e-05
2.922e-05
2.92375e-05
2.92437e-05
2.92453e-05
2.92453e-05
2.92436e-05
2.92372e-05
2.92198e-05
2.91796e-05
2.90986e-05
2.89508e-05
2.87009e-05
2.83055e-05
2.77179e-05
2.69126e-05
2.60696e-05
2.65722e-05
3.64089e-05
7.86528e-05
7.90083e-05
3.65853e-05
2.6551e-05
2.58936e-05
2.67267e-05
2.75516e-05
2.81665e-05
2.85902e-05
2.88663e-05
2.90367e-05
2.91358e-05
2.91897e-05
2.92168e-05
2.92292e-05
2.92338e-05
2.92338e-05
2.92291e-05
2.92166e-05
2.91894e-05
2.91354e-05
2.90363e-05
2.88661e-05
2.85903e-05
2.81673e-05
2.75536e-05
2.67303e-05
2.58987e-05
2.65545e-05
3.65871e-05
7.8995e-05
7.94685e-05
3.6846e-05
2.65428e-05
2.56541e-05
2.64678e-05
2.7316e-05
2.79648e-05
2.84237e-05
2.87326e-05
2.89318e-05
2.90547e-05
2.91273e-05
2.91681e-05
2.91892e-05
2.91981e-05
2.9198e-05
2.91891e-05
2.91678e-05
2.9127e-05
2.90543e-05
2.89314e-05
2.87324e-05
2.84239e-05
2.79664e-05
2.73201e-05
2.6476e-05
2.56673e-05
2.65544e-05
3.68514e-05
7.94423e-05
8.00381e-05
3.72145e-05
2.65615e-05
2.53428e-05
2.61253e-05
2.70002e-05
2.76872e-05
2.81849e-05
2.85306e-05
2.8763e-05
2.89144e-05
2.90102e-05
2.90683e-05
2.91011e-05
2.91157e-05
2.91156e-05
2.91009e-05
2.90681e-05
2.90099e-05
2.8914e-05
2.87624e-05
2.853e-05
2.81848e-05
2.76889e-05
2.70063e-05
2.61403e-05
2.53714e-05
2.65949e-05
3.72281e-05
7.99895e-05
8.07176e-05
3.77241e-05
2.6653e-05
2.49786e-05
2.57033e-05
2.66013e-05
2.73211e-05
2.78537e-05
2.82349e-05
2.85015e-05
2.86843e-05
2.88067e-05
2.88858e-05
2.89327e-05
2.89546e-05
2.89546e-05
2.89327e-05
2.88858e-05
2.88067e-05
2.8684e-05
2.85007e-05
2.82333e-05
2.78517e-05
2.73204e-05
2.66063e-05
2.57225e-05
2.50249e-05
2.67232e-05
3.77537e-05
8.06317e-05
8.15177e-05
3.84398e-05
2.69756e-05
2.46866e-05
2.52611e-05
2.61311e-05
2.68539e-05
2.7405e-05
2.78134e-05
2.81114e-05
2.83259e-05
2.84773e-05
2.858e-05
2.86435e-05
2.86739e-05
2.86741e-05
2.8644e-05
2.85808e-05
2.84782e-05
2.83265e-05
2.81107e-05
2.78102e-05
2.73986e-05
2.68454e-05
2.61258e-05
2.52724e-05
2.47352e-05
2.70845e-05
3.84943e-05
8.13793e-05
8.25993e-05
3.95157e-05
2.7861e-05
2.4739e-05
2.4886e-05
2.55993e-05
2.62681e-05
2.68084e-05
2.72293e-05
2.75523e-05
2.7797e-05
2.79785e-05
2.81068e-05
2.81887e-05
2.82287e-05
2.82292e-05
2.81903e-05
2.81095e-05
2.79821e-05
2.78005e-05
2.75536e-05
2.72254e-05
2.67954e-05
2.62439e-05
2.55672e-05
2.48642e-05
2.47635e-05
2.79861e-05
3.96043e-05
8.24331e-05
8.39758e-05
4.12685e-05
2.9701e-05
2.53245e-05
2.46627e-05
2.50282e-05
2.5553e-05
2.60421e-05
2.64552e-05
2.6793e-05
2.70647e-05
2.72765e-05
2.74317e-05
2.75329e-05
2.75831e-05
2.75844e-05
2.7537e-05
2.74389e-05
2.72866e-05
2.70762e-05
2.68024e-05
2.6456e-05
2.60249e-05
2.55078e-05
2.49498e-05
2.45653e-05
2.52587e-05
2.9749e-05
4.1384e-05
8.37517e-05
8.53954e-05
4.41079e-05
3.24203e-05
2.69247e-05
2.49267e-05
2.45914e-05
2.48229e-05
2.51828e-05
2.55463e-05
2.58785e-05
2.6168e-05
2.64062e-05
2.65856e-05
2.67037e-05
2.67629e-05
2.67655e-05
2.67121e-05
2.66011e-05
2.64296e-05
2.61978e-05
2.59094e-05
2.55692e-05
2.51787e-05
2.47654e-05
2.44593e-05
2.47386e-05
2.66989e-05
3.23652e-05
4.43755e-05
8.51064e-05
8.68511e-05
4.77672e-05
3.70102e-05
3.00898e-05
2.65418e-05
2.51414e-05
2.48465e-05
2.49198e-05
2.51111e-05
2.53431e-05
2.55898e-05
2.58121e-05
2.5984e-05
2.60981e-05
2.6156e-05
2.61605e-05
2.61129e-05
2.60126e-05
2.58589e-05
2.56555e-05
2.54178e-05
2.51853e-05
2.49666e-05
2.48225e-05
2.49903e-05
2.62062e-05
2.96787e-05
3.67549e-05
4.81897e-05
8.66222e-05
8.99218e-05
4.76612e-05
4.18496e-05
3.50862e-05
3.13816e-05
2.98847e-05
2.91557e-05
2.867e-05
2.8437e-05
2.83388e-05
2.83026e-05
2.82903e-05
2.82849e-05
2.8282e-05
2.82823e-05
2.82873e-05
2.82991e-05
2.83197e-05
2.83523e-05
2.84022e-05
2.84806e-05
2.86132e-05
2.88396e-05
2.92341e-05
2.98069e-05
3.1078e-05
3.44924e-05
4.17278e-05
4.86241e-05
8.99286e-05
7.62225e-05
2.21311e-05
4.10997e-05
4.23107e-05
4.32294e-05
4.31518e-05
4.27586e-05
4.23796e-05
4.1972e-05
4.15705e-05
4.12181e-05
4.09325e-05
4.07174e-05
4.05739e-05
4.05023e-05
4.0503e-05
4.05768e-05
4.07251e-05
4.09494e-05
4.12511e-05
4.16271e-05
4.20565e-05
4.24804e-05
4.2833e-05
4.31447e-05
4.31607e-05
4.21989e-05
4.12461e-05
2.24205e-05
7.66231e-05
0.000205622
0.000104879
9.2552e-05
8.5907e-05
8.37367e-05
8.24439e-05
8.13152e-05
8.01442e-05
7.91277e-05
7.83295e-05
7.77942e-05
7.73976e-05
7.71114e-05
7.69243e-05
7.68293e-05
7.68225e-05
7.69021e-05
7.70689e-05
7.73264e-05
7.7684e-05
7.81769e-05
7.89464e-05
7.99089e-05
8.10176e-05
8.2048e-05
8.33451e-05
8.56384e-05
9.26233e-05
0.000105471
0.000207082
0.000184852
9.27228e-05
8.23839e-05
7.74824e-05
7.63111e-05
7.57911e-05
7.53693e-05
7.47307e-05
7.40844e-05
7.35037e-05
7.29889e-05
7.25913e-05
7.23099e-05
7.21351e-05
7.20584e-05
7.20764e-05
7.2193e-05
7.24188e-05
7.27697e-05
7.32592e-05
7.38809e-05
7.45421e-05
7.52639e-05
7.59413e-05
7.64127e-05
7.68291e-05
7.77239e-05
8.2103e-05
9.15333e-05
0.000181781
7.04536e-05
3.11074e-05
5.06626e-05
5.55023e-05
5.87586e-05
6.06167e-05
6.13719e-05
6.11368e-05
6.02987e-05
5.92517e-05
5.82402e-05
5.73715e-05
5.66947e-05
5.62349e-05
5.60058e-05
5.60121e-05
5.62486e-05
5.67012e-05
5.73526e-05
5.81874e-05
5.91758e-05
6.02336e-05
6.11725e-05
6.15805e-05
6.10904e-05
5.94281e-05
5.61223e-05
5.08772e-05
3.05989e-05
6.98941e-05
8.15775e-05
5.58913e-05
5.10234e-05
4.59229e-05
4.24193e-05
3.93482e-05
3.72458e-05
3.59745e-05
3.50931e-05
3.43302e-05
3.36692e-05
3.31353e-05
3.2744e-05
3.24903e-05
3.23655e-05
3.23641e-05
3.24844e-05
3.27286e-05
3.31008e-05
3.35984e-05
3.42242e-05
3.50021e-05
3.59594e-05
3.75065e-05
4.01392e-05
4.36158e-05
4.74666e-05
5.18177e-05
5.47238e-05
8.15534e-05
7.88625e-05
6.05495e-05
5.04852e-05
3.92156e-05
3.19748e-05
2.80028e-05
2.63906e-05
2.58274e-05
2.55776e-05
2.5438e-05
2.52864e-05
2.51016e-05
2.49525e-05
2.48543e-05
2.48032e-05
2.47941e-05
2.48248e-05
2.48968e-05
2.5014e-05
2.51691e-05
2.53408e-05
2.55041e-05
2.58335e-05
2.66119e-05
2.87807e-05
3.31581e-05
4.05383e-05
5.12428e-05
6.01417e-05
7.90909e-05
7.76727e-05
5.85853e-05
4.49525e-05
3.30215e-05
2.63196e-05
2.3329e-05
2.23934e-05
2.22837e-05
2.23985e-05
2.25512e-05
2.26728e-05
2.27482e-05
2.28034e-05
2.28489e-05
2.28693e-05
2.28603e-05
2.2821e-05
2.27583e-05
2.2693e-05
2.26076e-05
2.24903e-05
2.2362e-05
2.23169e-05
2.25779e-05
2.38125e-05
2.70626e-05
3.38838e-05
4.53302e-05
5.83071e-05
7.80845e-05
7.70581e-05
5.67716e-05
3.89966e-05
2.85109e-05
2.37464e-05
2.19388e-05
2.1636e-05
2.18209e-05
2.21284e-05
2.24263e-05
2.26724e-05
2.28565e-05
2.2988e-05
2.30735e-05
2.31134e-05
2.31077e-05
2.30561e-05
2.29592e-05
2.28196e-05
2.26314e-05
2.23911e-05
2.21161e-05
2.18592e-05
2.17587e-05
2.21685e-05
2.40186e-05
2.86888e-05
3.89681e-05
5.66185e-05
7.74847e-05
7.63829e-05
5.44453e-05
3.47608e-05
2.60799e-05
2.26266e-05
2.17335e-05
2.1846e-05
2.22107e-05
2.26027e-05
2.29474e-05
2.32248e-05
2.34346e-05
2.35833e-05
2.36778e-05
2.37226e-05
2.37196e-05
2.36688e-05
2.35685e-05
2.34155e-05
2.32045e-05
2.29318e-05
2.26008e-05
2.22333e-05
2.19002e-05
2.18099e-05
2.2682e-05
2.60612e-05
3.46759e-05
5.43278e-05
7.67712e-05
7.5664e-05
5.20539e-05
3.21719e-05
2.47652e-05
2.21822e-05
2.18905e-05
2.22576e-05
2.27327e-05
2.31681e-05
2.35276e-05
2.38075e-05
2.40147e-05
2.41592e-05
2.425e-05
2.42931e-05
2.42917e-05
2.42457e-05
2.41523e-05
2.40057e-05
2.37981e-05
2.35208e-05
2.31671e-05
2.27398e-05
2.22699e-05
2.18954e-05
2.216e-05
2.46957e-05
3.20561e-05
5.19354e-05
7.5981e-05
7.49937e-05
4.97985e-05
3.04625e-05
2.38908e-05
2.20286e-05
2.21468e-05
2.26698e-05
2.3206e-05
2.36602e-05
2.40186e-05
2.42885e-05
2.44833e-05
2.46162e-05
2.46983e-05
2.47371e-05
2.47365e-05
2.46964e-05
2.46132e-05
2.44794e-05
2.42844e-05
2.40151e-05
2.36581e-05
2.32042e-05
2.26639e-05
2.2126e-05
2.19818e-05
2.37844e-05
3.0325e-05
4.96956e-05
7.51991e-05
7.44761e-05
4.78866e-05
2.9328e-05
2.33759e-05
2.20766e-05
2.24251e-05
2.30336e-05
2.35959e-05
2.40511e-05
2.43981e-05
2.46516e-05
2.48293e-05
2.49475e-05
2.5019e-05
2.50524e-05
2.50522e-05
2.50183e-05
2.49463e-05
2.48277e-05
2.46497e-05
2.43961e-05
2.40486e-05
2.35912e-05
2.30227e-05
2.23998e-05
2.20252e-05
2.3294e-05
2.92345e-05
4.78273e-05
7.45968e-05
7.40965e-05
4.63583e-05
2.85802e-05
2.31078e-05
2.22236e-05
2.26893e-05
2.33346e-05
2.39015e-05
2.43464e-05
2.46761e-05
2.49102e-05
2.50694e-05
2.51723e-05
2.52329e-05
2.52609e-05
2.52608e-05
2.52327e-05
2.51719e-05
2.50689e-05
2.49094e-05
2.4675e-05
2.43443e-05
2.38972e-05
2.33254e-05
2.26707e-05
2.21894e-05
2.30608e-05
2.85308e-05
4.63339e-05
7.4163e-05
7.38261e-05
4.51963e-05
2.80866e-05
2.29775e-05
2.23755e-05
2.291e-05
2.35695e-05
2.41302e-05
2.45599e-05
2.48707e-05
2.50853e-05
2.52271e-05
2.53158e-05
2.53667e-05
2.53896e-05
2.53896e-05
2.53667e-05
2.53158e-05
2.5227e-05
2.50851e-05
2.48701e-05
2.45586e-05
2.41274e-05
2.35638e-05
2.28991e-05
2.23569e-05
2.29544e-05
2.80639e-05
4.51923e-05
7.38616e-05
7.36408e-05
4.43688e-05
2.77687e-05
2.29174e-05
2.24983e-05
2.30754e-05
2.37398e-05
2.42912e-05
2.47058e-05
2.49995e-05
2.51975e-05
2.53246e-05
2.54018e-05
2.54447e-05
2.54636e-05
2.54636e-05
2.54448e-05
2.54019e-05
2.53248e-05
2.51976e-05
2.49995e-05
2.47053e-05
2.42899e-05
2.37368e-05
2.30699e-05
2.24892e-05
2.29071e-05
2.77598e-05
4.43741e-05
7.366e-05
7.35244e-05
4.38416e-05
2.75803e-05
2.28928e-05
2.25824e-05
2.31842e-05
2.38497e-05
2.43932e-05
2.47962e-05
2.50772e-05
2.52631e-05
2.53797e-05
2.54487e-05
2.5486e-05
2.55022e-05
2.55022e-05
2.54862e-05
2.54489e-05
2.538e-05
2.52633e-05
2.50774e-05
2.47962e-05
2.43928e-05
2.38484e-05
2.31816e-05
2.2578e-05
2.28884e-05
2.75773e-05
4.38496e-05
7.35356e-05
7.34675e-05
4.35858e-05
2.74929e-05
2.28849e-05
2.26248e-05
2.32379e-05
2.39035e-05
2.44426e-05
2.48393e-05
2.51135e-05
2.5293e-05
2.54043e-05
2.54691e-05
2.55036e-05
2.55183e-05
2.55183e-05
2.55037e-05
2.54693e-05
2.54046e-05
2.52934e-05
2.51138e-05
2.48394e-05
2.44425e-05
2.39029e-05
2.32366e-05
2.26223e-05
2.28827e-05
2.74919e-05
4.35936e-05
7.34754e-05
7.34668e-05
4.35852e-05
2.74928e-05
2.28849e-05
2.26248e-05
2.32379e-05
2.39034e-05
2.44425e-05
2.48392e-05
2.51135e-05
2.5293e-05
2.54042e-05
2.5469e-05
2.55035e-05
2.55182e-05
2.55183e-05
2.55036e-05
2.54692e-05
2.54045e-05
2.52932e-05
2.51137e-05
2.48393e-05
2.44425e-05
2.3903e-05
2.32369e-05
2.26227e-05
2.2883e-05
2.74917e-05
4.35917e-05
7.34739e-05
7.35224e-05
4.38391e-05
2.75796e-05
2.28926e-05
2.25826e-05
2.31843e-05
2.38497e-05
2.43931e-05
2.4796e-05
2.5077e-05
2.52629e-05
2.53796e-05
2.54485e-05
2.54859e-05
2.5502e-05
2.5502e-05
2.54859e-05
2.54486e-05
2.53797e-05
2.5263e-05
2.50771e-05
2.47959e-05
2.43928e-05
2.38488e-05
2.31826e-05
2.25795e-05
2.28894e-05
2.7577e-05
4.38441e-05
7.353e-05
7.36386e-05
4.43622e-05
2.77662e-05
2.2916e-05
2.24983e-05
2.30755e-05
2.37397e-05
2.42911e-05
2.47056e-05
2.49993e-05
2.51973e-05
2.53244e-05
2.54015e-05
2.54444e-05
2.54633e-05
2.54633e-05
2.54444e-05
2.54015e-05
2.53243e-05
2.51971e-05
2.4999e-05
2.47051e-05
2.42901e-05
2.37379e-05
2.30722e-05
2.24928e-05
2.29095e-05
2.77602e-05
4.43649e-05
7.36481e-05
7.38253e-05
4.51807e-05
2.80793e-05
2.29727e-05
2.23744e-05
2.29098e-05
2.35694e-05
2.413e-05
2.45597e-05
2.48704e-05
2.5085e-05
2.52267e-05
2.53155e-05
2.53663e-05
2.53892e-05
2.53892e-05
2.53661e-05
2.53152e-05
2.52263e-05
2.50844e-05
2.48696e-05
2.45584e-05
2.41281e-05
2.3566e-05
2.29038e-05
2.23643e-05
2.29592e-05
2.80669e-05
4.51786e-05
7.38389e-05
7.41002e-05
4.63254e-05
2.85624e-05
2.30953e-05
2.22199e-05
2.26885e-05
2.33346e-05
2.39016e-05
2.43463e-05
2.46758e-05
2.49097e-05
2.50689e-05
2.51718e-05
2.52324e-05
2.52603e-05
2.52602e-05
2.52321e-05
2.51712e-05
2.5068e-05
2.49086e-05
2.46744e-05
2.43444e-05
2.38986e-05
2.33293e-05
2.26787e-05
2.22024e-05
2.30694e-05
2.85386e-05
4.63138e-05
7.41225e-05
7.44901e-05
4.78236e-05
2.92886e-05
2.33488e-05
2.2068e-05
2.24237e-05
2.30344e-05
2.35968e-05
2.40514e-05
2.43979e-05
2.4651e-05
2.48286e-05
2.49468e-05
2.50183e-05
2.50518e-05
2.50515e-05
2.50176e-05
2.49456e-05
2.48269e-05
2.4649e-05
2.43956e-05
2.40489e-05
2.35932e-05
2.3028e-05
2.24106e-05
2.20418e-05
2.33043e-05
2.92461e-05
4.77959e-05
7.45282e-05
7.5028e-05
4.96924e-05
3.03908e-05
2.38452e-05
2.20141e-05
2.21467e-05
2.26734e-05
2.32087e-05
2.36612e-05
2.40182e-05
2.42875e-05
2.44821e-05
2.46151e-05
2.46974e-05
2.47364e-05
2.47359e-05
2.4696e-05
2.46128e-05