/*--------------------------------*- C++ -*----------------------------------*\
| =========                 |                                                 |
| \\      /  F ield         | OpenFOAM: The Open Source CFD Toolbox           |
|  \\    /   O peration     | Version:  2312                                  |
|   \\  /    A nd           | Website:  www.openfoam.com                      |
|    \\/     M anipulation  |                                                 |
\*---------------------------------------------------------------------------*/
FoamFile
{
    version     2.0;
    format      ascii;
    arch        "LSB;label=32;scalar=64";
    class       volScalarField;
    location    "100";
    object      nut;
}
// * * * * * * * * * * * * * * * * * * * * * * * * * * * * * * * * * * * * * //

dimensions      [0 2 -1 0 0 0 0];

internalField   nonuniform List<scalar> 
27000
(
3.96887e-06
6.7345e-06
9.37944e-06
1.17319e-05
1.40204e-05
1.61653e-05
1.81204e-05
1.97767e-05
2.12036e-05
2.24204e-05
2.34241e-05
2.42225e-05
2.48188e-05
2.52154e-05
2.54136e-05
2.54145e-05
2.5218e-05
2.48237e-05
2.42302e-05
2.34353e-05
2.24351e-05
2.12189e-05
1.97945e-05
1.81395e-05
1.61832e-05
1.40337e-05
1.17367e-05
9.37484e-06
6.72436e-06
3.96265e-06
5.76763e-06
1.27718e-06
5.19331e-06
9.1449e-06
1.32248e-05
1.70346e-05
2.06173e-05
2.39705e-05
2.7043e-05
2.98079e-05
3.22285e-05
3.42446e-05
3.58023e-05
3.6863e-05
3.74025e-05
3.74093e-05
3.68839e-05
3.58388e-05
3.42985e-05
3.22996e-05
2.98925e-05
2.71292e-05
2.40365e-05
2.06447e-05
1.70178e-05
1.31874e-05
9.12994e-06
5.20876e-06
1.28225e-06
5.76254e-06
9.22562e-06
7.23097e-06
1.47507e-05
2.70828e-05
3.78911e-05
4.66549e-05
5.46285e-05
6.23554e-05
6.95929e-05
7.61252e-05
8.17914e-05
8.6461e-05
9.00333e-05
9.24472e-05
9.36707e-05
9.3692e-05
9.25133e-05
9.01511e-05
8.66387e-05
8.20315e-05
7.64127e-05
6.98832e-05
6.25717e-05
5.46793e-05
4.64433e-05
3.74485e-05
2.66964e-05
1.46771e-05
7.18276e-06
9.22714e-06
1.21383e-05
1.08664e-05
2.64756e-05
5.48946e-05
8.14865e-05
9.8566e-05
0.000110547
0.000120621
0.00012959
0.000137373
0.000143908
0.000149173
0.000153119
0.000155745
0.000157066
0.000157096
0.000155838
0.000153287
0.000149426
0.000144245
0.000137756
0.000129941
0.000120775
0.00011025
9.75847e-05
8.00377e-05
5.39256e-05
2.62776e-05
1.08263e-05
1.21447e-05
1.48917e-05
1.44567e-05
3.70131e-05
7.77767e-05
0.000116738
0.000142468
0.000157901
0.000168397
0.000176735
0.000183107
0.000188001
0.000191979
0.000194939
0.000196891
0.000197868
0.000197895
0.000196974
0.000195084
0.000192183
0.000188233
0.000183256
0.000176807
0.000168184
0.000157101
0.000141035
0.000115236
7.7045e-05
3.68923e-05
1.44298e-05
1.49031e-05
1.74513e-05
1.83482e-05
4.74564e-05
9.56372e-05
0.000139656
0.000169598
0.0001873
0.000197783
0.000204656
0.000209465
0.000212928
0.0002155
0.000217346
0.000218541
0.000219135
0.000219154
0.0002186
0.000217443
0.000215624
0.000213046
0.000209514
0.000204557
0.000197384
0.000186503
0.000168576
0.000138893
9.54434e-05
4.75026e-05
1.83538e-05
1.74643e-05
1.97885e-05
2.24686e-05
5.82643e-05
0.000111247
0.000156313
0.00018629
0.000204026
0.000214
0.000219738
0.000223235
0.000225481
0.000226986
0.000227994
0.000228621
0.000228928
0.00022894
0.000228657
0.00022805
0.00022705
0.000225526
0.000223216
0.000219595
0.000213669
0.000203531
0.000185816
0.000156114
0.000111362
5.84013e-05
2.25052e-05
1.98005e-05
2.18734e-05
2.66682e-05
6.88354e-05
0.000125211
0.000169907
0.000197769
0.000213922
0.000222708
0.000227364
0.000229851
0.00023122
0.000232006
0.000232469
0.000232733
0.000232857
0.000232864
0.000232753
0.000232498
0.000232035
0.000231232
0.000229819
0.00022726
0.000222523
0.000213704
0.000197636
0.000169958
0.000125434
6.90125e-05
2.67211e-05
2.1885e-05
2.36952e-05
3.08037e-05
7.87577e-05
0.000137375
0.000180938
0.000206184
0.000220207
0.000227505
0.000231098
0.000232786
0.000233545
0.000233873
0.000234009
0.000234064
0.000234085
0.000234088
0.000234075
0.000234024
0.000233886
0.000233547
0.000232765
0.000231047
0.000227431
0.000220148
0.000206198
0.000181049
0.000137591
7.89255e-05
3.08581e-05
2.37035e-05
2.52575e-05
3.47074e-05
8.77496e-05
0.000147596
0.000188784
0.000212134
0.000224299
0.000230228
0.000232895
0.000233963
0.000234304
0.000234353
0.000234307
0.000234253
0.000234221
0.000234223
0.000234258
0.000234315
0.000234359
0.000234306
0.000233955
0.000232879
0.000230213
0.000224307
0.000212187
0.000188872
0.000147767
8.789e-05
3.47532e-05
2.52627e-05
2.65592e-05
3.82245e-05
9.56082e-05
0.000156159
0.000195324
0.000216557
0.000227056
0.000231826
0.000233749
0.000234357
0.000234424
0.00023431
0.00023417
0.000234065
0.000234012
0.000234013
0.000234068
0.000234175
0.000234314
0.000234427
0.000234358
0.00023375
0.000231835
0.000227085
0.000216618
0.000195423
0.000156289
9.57154e-05
3.8258e-05
2.65623e-05
2.76e-05
4.12177e-05
0.000102124
0.000163011
0.000200476
0.000219856
0.000228952
0.000232796
0.000234153
0.000234439
0.000234329
0.000234126
0.000233945
0.000233823
0.000233763
0.000233764
0.000233825
0.000233948
0.000234129
0.000234333
0.000234443
0.00023416
0.00023281
0.000228981
0.000219906
0.000200547
0.000163094
0.000102191
4.12383e-05
2.76018e-05
2.83802e-05
4.35691e-05
0.000107134
0.000168183
0.000204251
0.000222195
0.000230227
0.000233387
0.000234344
0.000234415
0.0002342
0.000233952
0.000233757
0.000233632
0.000233574
0.000233574
0.000233634
0.000233759
0.000233955
0.000234203
0.000234419
0.000234351
0.000233399
0.000230248
0.000222227
0.000204292
0.000168223
0.000107168
4.35793e-05
2.83813e-05
2.89002e-05
4.51878e-05
0.000110525
0.000171621
0.000206711
0.000223685
0.000231012
0.000233728
0.000234433
0.000234373
0.0002341
0.000233833
0.000233635
0.000233514
0.000233458
0.000233458
0.000233515
0.000233637
0.000233835
0.000234103
0.000234377
0.000234439
0.000233737
0.000231025
0.000223702
0.000206731
0.000171636
0.000110537
4.51906e-05
2.89008e-05
2.91602e-05
4.60131e-05
0.000112236
0.000173333
0.000207922
0.000224409
0.000231387
0.000233885
0.000234469
0.000234348
0.000234049
0.000233774
0.000233578
0.000233459
0.000233405
0.000233406
0.00023346
0.000233579
0.000233776
0.000234052
0.000234351
0.000234472
0.00023389
0.000231393
0.000224416
0.000207928
0.000173334
0.000112234
4.60108e-05
2.91606e-05
2.91603e-05
4.60139e-05
0.000112239
0.000173336
0.000207926
0.000224412
0.000231389
0.000233886
0.00023447
0.000234348
0.00023405
0.000233775
0.000233578
0.00023346
0.000233405
0.000233406
0.00023346
0.000233579
0.000233776
0.000234052
0.00023435
0.000234472
0.000233889
0.000231391
0.000224413
0.000207924
0.000173329
0.00011223
4.60091e-05
2.91606e-05
2.89005e-05
4.51905e-05
0.000110535
0.00017163
0.000206722
0.000223694
0.000231019
0.000233733
0.000234436
0.000234375
0.000234102
0.000233834
0.000233636
0.000233515
0.000233458
0.000233459
0.000233515
0.000233637
0.000233835
0.000234103
0.000234377
0.000234437
0.000233733
0.000231018
0.000223692
0.000206717
0.000171621
0.000110525
4.51853e-05
2.89009e-05
2.83807e-05
4.35739e-05
0.000107152
0.000168202
0.000204272
0.000222212
0.000230238
0.000233394
0.000234349
0.000234418
0.000234202
0.000233953
0.000233758
0.000233633
0.000233574
0.000233574
0.000233634
0.000233759
0.000233955
0.000234203
0.000234419
0.000234349
0.000233393
0.000230236
0.000222208
0.000204268
0.000168196
0.000107148
4.35703e-05
2.83815e-05
2.76009e-05
4.12257e-05
0.000102154
0.000163048
0.000200509
0.000219881
0.000228968
0.000232805
0.000234159
0.000234442
0.000234332
0.000234128
0.000233947
0.000233824
0.000233764
0.000233764
0.000233825
0.000233948
0.000234129
0.000234333
0.000234442
0.000234157
0.000232802
0.000228964
0.000219878
0.000200511
0.000163056
0.000102162
4.12254e-05
2.76022e-05
2.65605e-05
3.82364e-05
9.56507e-05
0.000156211
0.000195365
0.000216586
0.000227073
0.000231835
0.000233754
0.000234361
0.000234427
0.000234312
0.000234172
0.000234067
0.000234012
0.000234013
0.000234068
0.000234174
0.000234314
0.000234428
0.00023436
0.00023375
0.000231829
0.000227065
0.000216582
0.000195373
0.000156236
9.56749e-05
3.8241e-05
2.65627e-05
2.52595e-05
3.4723e-05
8.77981e-05
0.000147657
0.000188816
0.00021216
0.000224311
0.00023023
0.000232895
0.000233963
0.000234306
0.000234355
0.00023431
0.000234254
0.000234221
0.000234222
0.000234256
0.000234312
0.000234358
0.000234308
0.000233962
0.000232888
0.000230216
0.000224293
0.000212147
0.00018881
0.000147698
8.78375e-05
3.47335e-05
2.5263e-05
2.36982e-05
3.08224e-05
7.88145e-05
0.000137449
0.000180979
0.000206201
0.0002202
0.00022749
0.000231086
0.000232781
0.000233545
0.000233876
0.000234012
0.000234065
0.000234083
0.000234084
0.000234068
0.000234016
0.000233881
0.000233549
0.000232778
0.00023107
0.000227455
0.000220154
0.000206166
0.000180975
0.000137511
7.8866e-05
3.08398e-05
2.37034e-05
2.18775e-05
2.66876e-05
6.88964e-05
0.000125289
0.000169932
0.000197742
0.000213867
0.000222658
0.000227334
0.00022984
0.000231221
0.000232011
0.000232473
0.000232733
0.000232852
0.000232854
0.000232738
0.00023248
0.00023202
0.000231227
0.000229834
0.000227299
0.000222579
0.00021375
0.000197637
0.0001699
0.000125362
6.89616e-05
2.67117e-05
2.18844e-05
1.97923e-05
2.24848e-05
5.83156e-05
0.000111292
0.000156261
0.000186156
0.000203884
0.000213903
0.000219693
0.000223224
0.000225487
0.000226996
0.000228
0.00022862
0.000228918
0.00022892
0.000228628
0.000228014
0.000227015
0.000225503
0.000223218
0.000219635
0.000213749
0.000203623
0.000185867
0.000156096
0.000111316
5.83775e-05
2.25114e-05
1.97983e-05
1.74553e-05
1.83563e-05
4.74822e-05
9.55782e-05
0.000139413
0.000169279
0.000187057
0.000197661
0.000204621
0.00020947
0.000212948
0.000215519
0.000217356
0.000218538
0.000219119
0.000219123
0.000218554
0.000217384
0.00021556
0.000212989
0.000209483
0.000204568
0.000197453
0.000186613
0.000168669
0.000138912
9.54242e-05
4.75162e-05
1.83768e-05
1.74616e-05
1.48951e-05
1.44551e-05
3.69809e-05
7.75302e-05
0.000116233
0.000141997
0.000157648
0.000168328
0.000176746
0.000183137
0.000188046
0.000192012
0.000194954
0.000196886
0.000197846
0.000197854
0.000196913
0.000195004
0.00019209
0.00018814
0.000183186
0.000176761
0.000168199
0.000157172
0.00014113
0.000115286
7.7043e-05
3.69108e-05
1.44643e-05
1.49006e-05
1.21399e-05
1.08592e-05
2.64183e-05
5.459e-05
8.10202e-05
9.82443e-05
0.000110449
0.000120655
0.000129676
0.000137463
0.000143979
0.000149216
0.000153137
0.00015574
0.000157041
0.000157052
0.000155776
0.000153204
0.000149327
0.000144137
0.000137654
0.000129856
0.000120727
0.000110251
9.76318e-05
8.01e-05
5.39472e-05
2.62825e-05
1.0855e-05
1.21424e-05
9.22579e-06
7.21936e-06
1.47258e-05
2.69651e-05
3.77544e-05
4.65885e-05
5.46449e-05
6.24147e-05
6.96679e-05
7.61944e-05
8.1843e-05
8.64925e-05
9.00463e-05
9.24441e-05
9.36534e-05
9.36611e-05
9.24689e-05
9.00936e-05
8.65699e-05
8.1957e-05
7.63428e-05
6.98282e-05
6.25423e-05
5.46807e-05
4.6454e-05
3.74589e-05
2.66993e-05
1.46485e-05
7.19718e-06
9.22546e-06
5.76595e-06
1.27876e-06
5.19469e-06
9.13832e-06
1.32145e-05
1.70323e-05
2.0628e-05
2.3991e-05
2.70674e-05
2.98298e-05
3.2245e-05
3.42551e-05
3.5807e-05
3.68625e-05
3.73973e-05
3.73996e-05
3.68699e-05
3.58212e-05
3.42786e-05
3.22805e-05
2.98786e-05
2.71255e-05
2.40458e-05
2.06656e-05
1.70409e-05
1.31971e-05
9.11237e-06
5.17819e-06
1.28056e-06
5.76302e-06
3.96715e-06
6.73188e-06
9.37804e-06
1.17329e-05
1.40237e-05
1.61698e-05
1.81252e-05
1.97811e-05
2.12072e-05
2.24239e-05
2.34267e-05
2.4224e-05
2.48197e-05
2.52157e-05
2.54136e-05
2.54142e-05
2.52175e-05
2.48229e-05
2.4229e-05
2.34336e-05
2.24322e-05
2.12152e-05
1.97901e-05
1.81347e-05
1.61785e-05
1.40295e-05
1.17337e-05
9.37365e-06
6.72492e-06
3.96321e-06
3.5242e-06
6.04151e-06
8.69294e-06
1.11266e-05
1.35423e-05
1.58031e-05
1.78609e-05
1.96147e-05
2.11372e-05
2.24551e-05
2.3572e-05
2.44718e-05
2.51495e-05
2.56024e-05
2.58288e-05
2.58275e-05
2.55982e-05
2.51417e-05
2.44594e-05
2.35537e-05
2.24306e-05
2.11132e-05
1.95875e-05
1.78312e-05
1.57661e-05
1.3513e-05
1.11135e-05
8.70086e-06
6.05964e-06
3.53709e-06
5.06424e-06
1.53296e-06
7.53019e-06
1.11483e-05
1.45795e-05
1.75264e-05
2.01964e-05
2.26263e-05
2.47375e-05
2.65323e-05
2.80116e-05
2.91884e-05
3.007e-05
3.06578e-05
3.09508e-05
3.09477e-05
3.06466e-05
3.00456e-05
2.9144e-05
2.79432e-05
2.6443e-05
2.46432e-05
2.2548e-05
2.01424e-05
1.74764e-05
1.45711e-05
1.11703e-05
7.59999e-06
1.55046e-06
5.07854e-06
8.6841e-06
9.69079e-06
1.35918e-05
1.70566e-05
2.14712e-05
2.70911e-05
3.24058e-05
3.66573e-05
4.0509e-05
4.401e-05
4.7072e-05
4.96092e-05
5.15522e-05
5.28649e-05
5.35291e-05
5.35376e-05
5.28913e-05
5.1598e-05
4.96761e-05
4.71579e-05
4.41056e-05
4.06119e-05
3.67589e-05
3.2495e-05
2.73612e-05
2.18078e-05
1.71228e-05
1.36528e-05
9.90534e-06
8.68992e-06
1.16262e-05
1.30787e-05
1.82217e-05
2.49004e-05
3.42799e-05
4.53018e-05
5.56995e-05
6.43067e-05
7.15403e-05
7.77963e-05
8.32285e-05
8.77826e-05
9.12858e-05
9.3652e-05
9.48513e-05
9.48792e-05
9.37391e-05
9.14348e-05
8.79874e-05
8.34561e-05
7.79491e-05
7.16482e-05
6.4419e-05
5.59684e-05
4.60772e-05
3.53416e-05
2.54546e-05
1.82451e-05
1.31683e-05
1.16145e-05
1.45049e-05
1.55633e-05
2.29948e-05
3.55266e-05
5.23633e-05
7.15867e-05
8.87574e-05
0.000102024
0.00011257
0.000121316
0.000128543
0.000134103
0.00013822
0.000140947
0.000142303
0.000142322
0.000141023
0.000138341
0.00013425
0.0001287
0.000121506
0.000112712
0.000102212
8.91535e-05
7.24745e-05
5.35013e-05
3.6074e-05
2.30518e-05
1.56048e-05
1.44826e-05
1.72105e-05
1.79589e-05
2.89384e-05
4.72717e-05
7.26307e-05
9.84575e-05
0.000120489
0.000137287
0.000149521
0.000158651
0.000165575
0.000170721
0.000174394
0.000176772
0.000177949
0.000177958
0.000176804
0.000174441
0.000170774
0.000165631
0.000158728
0.000149651
0.00013757
0.000120902
9.88101e-05
7.28396e-05
4.72714e-05
2.88624e-05
1.79226e-05
1.71905e-05
1.97124e-05
2.0498e-05
3.38608e-05
5.84278e-05
9.06729e-05
0.000121528
0.000145784
0.000163466
0.000175947
0.000184725
0.000190948
0.000195342
0.000198355
0.000200252
0.000201172
0.000201175
0.000200261
0.000198368
0.000195358
0.000190971
0.000184776
0.00017607
0.000163705
0.000146086
0.000121685
9.0683e-05
5.84117e-05
3.3901e-05
2.04463e-05
1.96948e-05
2.20174e-05
2.30117e-05
3.87499e-05
6.86313e-05
0.000105862
0.000139527
0.000164395
0.000181847
0.000193741
0.000201743
0.000207114
0.000210707
0.000213057
0.000214483
0.000215159
0.000215159
0.000214484
0.000213058
0.00021071
0.000207125
0.000201777
0.000193821
0.000181983
0.000164546
0.000139623
0.000105916
6.86901e-05
3.88192e-05
2.29546e-05
2.19994e-05
2.4102e-05
2.5354e-05
4.36916e-05
7.83796e-05
0.000118822
0.000153231
0.000177801
0.000194443
0.000205383
0.00021244
0.000216942
0.00021979
0.000221555
0.000222578
0.000223048
0.000223048
0.000222576
0.000221552
0.000219789
0.000216947
0.000212458
0.000205424
0.000194508
0.000177874
0.000153303
0.000118945
7.85476e-05
4.37591e-05
2.53063e-05
2.40896e-05
2.59286e-05
2.74627e-05
4.8341e-05
8.71968e-05
0.000130218
0.00016398
0.000187531
0.000203042
0.000212899
0.000218999
0.000222699
0.000224905
0.000226188
0.000226891
0.000227201
0.0002272
0.000226888
0.000226184
0.000224902
0.0002227
0.000219007
0.000212917
0.000203073
0.00018757
0.000164037
0.000130333
8.73428e-05
4.8342e-05
2.74303e-05
2.5921e-05
2.74778e-05
2.92947e-05
5.23357e-05
9.45154e-05
0.000138714
0.000172049
0.00019454
0.000208903
0.000217719
0.000222953
0.000225965
0.000227647
0.000228555
0.000229017
0.000229208
0.000229207
0.000229014
0.000228552
0.000227643
0.000225963
0.000222954
0.000217727
0.000208916
0.00019456
0.00017208
0.000138768
9.45951e-05
5.22893e-05
2.92759e-05
2.74734e-05
2.87344e-05
3.08124e-05
5.55718e-05
0.00010032
0.000145091
0.000177942
0.000199496
0.000212856
0.000220785
0.000225299
0.000227762
0.000229043
0.000229675
0.000229963
0.000230072
0.000230071
0.000229961
0.000229671
0.000229039
0.000227758
0.000225297
0.000220786
0.000212861
0.000199505
0.000177958
0.00014512
0.000100361
5.55436e-05
3.08048e-05
2.87319e-05
2.96867e-05
3.19861e-05
5.80666e-05
0.000104714
0.000149745
0.000182103
0.000202881
0.000215449
0.00022269
0.00022666
0.000228718
0.000229714
0.000230154
0.000230327
0.000230382
0.000230381
0.000230325
0.00023015
0.000229709
0.000228713
0.000226656
0.000222686
0.000215448
0.000202883
0.000182109
0.000149759
0.000104732
5.80553e-05
3.19849e-05
2.96853e-05
3.0326e-05
3.27867e-05
5.97686e-05
0.00010766
0.000152809
0.000184779
0.000205001
0.00021702
0.000223795
0.000227404
0.000229198
0.000230011
0.000230334
0.000230436
0.000230459
0.000230458
0.000230434
0.00023033
0.000230006
0.000229192
0.000227397
0.000223789
0.000217014
0.000204997
0.000184778
0.000152815
0.00010767
5.97672e-05
3.27885e-05
3.03252e-05
3.06468e-05
3.31921e-05
6.06301e-05
0.000109134
0.000154329
0.000186089
0.000206023
0.000217762
0.000224302
0.000227731
0.000229395
0.000230121
0.000230387
0.000230457
0.000230465
0.000230464
0.000230455
0.000230383
0.000230116
0.000229389
0.000227723
0.000224294
0.000217753
0.000206014
0.000186084
0.000154331
0.000109141
6.06326e-05
3.31948e-05
3.06465e-05
3.06467e-05
3.31906e-05
6.06252e-05
0.000109129
0.000154322
0.000186083
0.000206019
0.000217759
0.000224301
0.00022773
0.000229394
0.00023012
0.000230386
0.000230457
0.000230464
0.000230463
0.000230454
0.000230383
0.000230115
0.000229387
0.000227721
0.00022429
0.000217747
0.000206006
0.000186072
0.000154318
0.00010913
6.06259e-05
3.31925e-05
3.06464e-05
3.03255e-05
3.27825e-05
5.97539e-05
0.000107643
0.000152789
0.000184762
0.000204989
0.000217013
0.00022379
0.0002274
0.000229195
0.000230009
0.000230332
0.000230434
0.000230457
0.000230456
0.000230432
0.000230328
0.000230003
0.000229188
0.000227391
0.000223778
0.000216997
0.000204971
0.000184743
0.000152774
0.000107635
5.97461e-05
3.27816e-05
3.03249e-05
2.96858e-05
3.19788e-05
5.80409e-05
0.000104688
0.000149712
0.000182076
0.000202862
0.000215437
0.000222682
0.000226654
0.000228713
0.000229709
0.00023015
0.000230323
0.000230378
0.000230377
0.00023032
0.000230146
0.000229703
0.000228705
0.000226644
0.000222668
0.000215417
0.000202836
0.000182044
0.000149683
0.000104668
5.80168e-05
3.19729e-05
2.96845e-05
2.8733e-05
3.08008e-05
5.55335e-05
0.000100295
0.00014505
0.000177906
0.000199471
0.000212841
0.000220774
0.000225292
0.000227755
0.000229037
0.000229668
0.000229956
0.000230065
0.000230064
0.000229953
0.000229662
0.000229029
0.000227746
0.00022528
0.000220759
0.000212818
0.000199436
0.00017786
0.000145004
0.000100265
5.5485e-05
3.07872e-05
2.87303e-05
2.74755e-05
2.92774e-05
5.22876e-05
9.45011e-05
0.000138673
0.000172011
0.000194514
0.000208887
0.000217709
0.000222944
0.000225956
0.000227637
0.000228545
0.000229005
0.000229196
0.000229194
0.000229
0.000228536
0.000227627
0.000225945
0.000222933
0.000217696
0.000208866
0.000194476
0.000171953
0.000138612
9.44681e-05
5.22109e-05
2.9253e-05
2.74704e-05
2.59248e-05
2.74397e-05
4.83316e-05
8.72163e-05
0.000130204
0.000163949
0.000187511
0.000203034
0.000212893
0.000218992
0.000222689
0.000224892
0.000226172
0.000226873
0.000227181
0.000227177
0.000226864
0.000226158
0.000224875
0.000222675
0.000218984
0.000212892
0.00020303
0.000187488
0.000163896
0.000130154
8.72003e-05
4.82548e-05
2.74043e-05
2.5916e-05
2.4096e-05
2.53244e-05
4.3699e-05
7.8413e-05
0.000118824
0.000153214
0.000177804
0.000194456
0.000205391
0.000212438
0.000216932
0.000219774
0.000221534
0.000222553
0.000223019
0.000223013
0.000222537
0.00022151
0.000219746
0.00021691
0.000212435
0.000205416
0.0001945
0.000177833
0.000153195
0.000118793
7.84156e-05
4.36879e-05
2.52809e-05
2.40819e-05
2.20088e-05
2.29775e-05
3.87574e-05
6.86248e-05
0.000105855
0.000139543
0.00016445
0.000181902
0.000193773
0.00020175
0.000207106
0.000210688
0.000213031
0.00021445
0.000215118
0.000215109
0.000214425
0.000212991
0.000210641
0.000207067
0.000201748
0.000193839
0.000182042
0.000164602
0.000139605
0.000105818
6.85773e-05
3.87688e-05
2.29325e-05
2.19886e-05
1.97035e-05
2.04649e-05
3.3858e-05
5.84061e-05
9.06864e-05
0.000121611
0.000145926
0.000163578
0.000176003
0.000184741
0.000190944
0.000195326
0.00019833
0.000200215
0.000201122
0.00020111
0.000200179
0.000198271
0.000195249
0.000190871
0.000184718
0.000176098
0.000163841
0.000146289
0.000121841
9.07071e-05
5.8327e-05
3.3849e-05
2.04317e-05
1.96827e-05
1.71999e-05
1.79318e-05
2.88762e-05
4.72825e-05
7.27803e-05
9.86904e-05
0.00012071
0.00013743
0.000149586
0.00015868
0.000165587
0.000170723
0.000174384
0.000176745
0.000177898
0.000177885
0.000176706
0.000174315
0.000170624
0.000165473
0.000158602
0.00014963
0.000137719
0.000121222
9.91793e-05
7.30645e-05
4.72693e-05
2.87825e-05
1.7921e-05
1.71759e-05
1.44932e-05
1.55778e-05
2.30098e-05
3.58164e-05
5.30677e-05
7.21725e-05
8.89882e-05
0.000102126
0.000112637
0.000121386
0.000128606
0.000134157
0.000138254
0.000140951
0.000142265
0.000142257
0.000140933
0.000138219
0.000134096
0.000128516
0.000121313
0.000112592
0.000102241
8.94027e-05
7.29509e-05
5.39387e-05
3.61926e-05
2.3031e-05
1.56519e-05
1.44675e-05
1.16198e-05
1.31173e-05
1.82436e-05
2.51567e-05
3.47944e-05
4.5759e-05
5.58272e-05
6.43473e-05
7.15687e-05
7.78374e-05
8.33142e-05
8.78593e-05
9.13366e-05
9.36737e-05
9.48446e-05
9.48464e-05
9.36807e-05
9.13494e-05
8.78734e-05
8.33108e-05
7.77714e-05
7.14732e-05
6.43037e-05
5.60058e-05
4.63356e-05
3.57766e-05
2.56564e-05
1.82273e-05
1.32241e-05
1.16046e-05
8.68589e-06
9.77638e-06
1.36175e-05
1.70851e-05
2.16202e-05
2.71963e-05
3.24072e-05
3.66736e-05
4.05311e-05
4.40338e-05
4.70966e-05
4.96273e-05
5.15614e-05
5.28642e-05
5.35182e-05
5.35161e-05
5.28586e-05
5.15538e-05
4.96204e-05
4.70903e-05
4.40178e-05
4.05136e-05
3.66539e-05
3.2402e-05
2.7382e-05
2.18953e-05
1.7076e-05
1.36067e-05
9.99277e-06
8.68786e-06
5.06926e-06
1.53747e-06
7.55516e-06
1.1154e-05
1.45753e-05
1.75033e-05
2.0165e-05
2.25877e-05
2.4696e-05
2.64959e-05
2.79843e-05
2.91697e-05
3.00572e-05
3.06474e-05
3.09403e-05
3.09351e-05
3.06311e-05
3.00272e-05
2.91233e-05
2.79197e-05
2.64161e-05
2.46131e-05
2.25195e-05
2.01203e-05
1.74814e-05
1.45721e-05
1.1143e-05
7.58572e-06
1.55299e-06
5.08669e-06
3.52901e-06
6.04866e-06
8.6957e-06
1.11204e-05
1.35297e-05
1.57872e-05
1.78482e-05
1.96034e-05
2.11275e-05
2.24458e-05
2.35651e-05
2.44668e-05
2.5146e-05
2.55998e-05
2.58265e-05
2.58252e-05
2.55955e-05
2.51381e-05
2.44542e-05
2.35465e-05
2.24218e-05
2.11019e-05
1.95733e-05
1.78131e-05
1.57475e-05
1.34972e-05
1.11041e-05
8.70072e-06
6.06682e-06
3.54261e-06
3.32551e-06
5.66402e-06
8.21829e-06
1.06057e-05
1.29789e-05
1.52055e-05
1.72435e-05
1.89814e-05
2.04846e-05
2.17742e-05
2.28485e-05
2.37125e-05
2.43648e-05
2.48027e-05
2.50241e-05
2.5028e-05
2.48151e-05
2.43874e-05
2.3748e-05
2.28992e-05
2.18399e-05
2.05568e-05
1.90576e-05
1.73175e-05
1.52781e-05
1.30342e-05
1.06316e-05
8.20792e-06
5.62773e-06
3.297e-06
4.84802e-06
2.59761e-06
1.05e-05
1.63232e-05
2.16296e-05
2.61229e-05
2.98313e-05
3.27418e-05
3.49648e-05
3.66365e-05
3.79024e-05
3.88536e-05
3.95419e-05
3.9995e-05
4.02273e-05
4.02458e-05
4.00527e-05
3.96443e-05
3.90084e-05
3.81117e-05
3.68822e-05
3.51961e-05
3.29534e-05
3.00395e-05
2.63879e-05
2.18966e-05
1.644e-05
1.04915e-05
2.57949e-06
4.82675e-06
8.28725e-06
1.27338e-05
1.71439e-05
2.13753e-05
2.50183e-05
2.76516e-05
3.05204e-05
3.38447e-05
3.69885e-05
3.95321e-05
4.14891e-05
4.29823e-05
4.41121e-05
4.48943e-05
4.5313e-05
4.53597e-05
4.50495e-05
4.4413e-05
4.34556e-05
4.20545e-05
4.00801e-05
3.75377e-05
3.4156e-05
3.06833e-05
2.78317e-05
2.51831e-05
2.16309e-05
1.72576e-05
1.23899e-05
8.28635e-06
1.1109e-05
1.84167e-05
2.37662e-05
2.58723e-05
2.90311e-05
3.36601e-05
4.06353e-05
4.79355e-05
5.39686e-05
5.91222e-05
6.31695e-05
6.60711e-05
6.8176e-05
6.95889e-05
7.03045e-05
7.03107e-05
6.96116e-05
6.823e-05
6.61669e-05
6.32967e-05
5.94012e-05
5.41872e-05
4.79197e-05
4.02106e-05
3.34445e-05
2.8929e-05
2.59248e-05
2.3861e-05
1.82974e-05
1.11304e-05
1.38744e-05
2.24437e-05
2.67744e-05
2.95614e-05
3.62539e-05
4.67812e-05
5.95451e-05
7.12192e-05
8.02242e-05
8.74757e-05
9.32437e-05
9.7606e-05
0.000100832
0.000103049
0.00010417
0.000104149
0.000102952
0.000100711
9.75391e-05
9.32062e-05
8.74682e-05
8.01584e-05
7.09694e-05
5.88061e-05
4.61949e-05
3.59578e-05
2.95261e-05
2.68361e-05
2.24201e-05
1.39192e-05
1.65274e-05
2.58316e-05
2.88196e-05
3.54834e-05
4.84994e-05
6.56401e-05
8.41456e-05
0.000100049
0.000112599
0.000122272
0.00012977
0.000135443
0.000139547
0.000142222
0.000143518
0.000143512
0.000142164
0.000139457
0.000135356
0.000129689
0.000122185
0.000112452
9.97532e-05
8.36906e-05
6.50823e-05
4.79883e-05
3.52253e-05
2.88649e-05
2.58829e-05
1.65794e-05
1.89905e-05
2.8407e-05
3.16563e-05
4.39217e-05
6.26305e-05
8.52124e-05
0.000108538
0.000127498
0.000141832
0.000152411
0.000160185
0.000165833
0.000169777
0.000172279
0.000173487
0.000173497
0.0001723
0.000169807
0.00016587
0.000160215
0.000152396
0.000141713
0.000127226
0.000108201
8.50979e-05
6.25352e-05
4.39394e-05
3.19263e-05
2.85168e-05
1.90453e-05
2.12343e-05
3.04809e-05
3.51525e-05
5.19568e-05
7.51079e-05
0.000102624
0.000128732
0.000148963
0.000163809
0.000174449
0.000181995
0.000187273
0.000190839
0.000193044
0.000194099
0.00019411
0.000193075
0.000190884
0.000187323
0.000182033
0.000174447
0.000163734
0.00014881
0.000128559
0.000102522
7.50848e-05
5.20942e-05
3.5441e-05
3.06243e-05
2.12863e-05
2.32459e-05
3.21296e-05
3.84462e-05
5.85616e-05
8.54682e-05
0.000117294
0.000144513
0.000164925
0.000179553
0.000189791
0.000196847
0.000201625
0.000204753
0.000206639
0.000207528
0.000207535
0.00020666
0.000204784
0.000201658
0.00019687
0.000189791
0.000179519
0.000164866
0.000144453
0.000117212
8.54115e-05
5.85258e-05
3.85283e-05
3.22449e-05
2.32839e-05
2.50198e-05
3.34861e-05
4.14353e-05
6.42603e-05
9.49222e-05
0.000129272
0.000156626
0.000176602
0.000190628
0.000200234
0.000206683
0.000210922
0.000213613
0.000215192
0.000215923
0.000215927
0.000215204
0.00021363
0.00021094
0.000206696
0.000200237
0.000190622
0.000176595
0.000156622
0.000129216
9.48502e-05
6.41937e-05
4.15061e-05
3.3572e-05
2.50446e-05
2.65371e-05
3.46154e-05
4.41965e-05
6.92267e-05
0.000103432
0.000138605
0.000165688
0.000185018
0.000198314
0.000207223
0.000213053
0.000216773
0.000219061
0.000220367
0.000220958
0.00022096
0.000220373
0.000219071
0.000216784
0.000213062
0.00020723
0.000198323
0.000185038
0.000165723
0.000138634
0.000103383
6.91853e-05
4.42559e-05
3.46738e-05
2.65519e-05
2.77776e-05
3.55359e-05
4.65883e-05
7.33541e-05
0.000110235
0.000145629
0.000172295
0.000190962
0.000203555
0.000211811
0.00021708
0.000220345
0.000222291
0.000223367
0.000223843
0.000223845
0.000223371
0.000222297
0.000220353
0.000217088
0.000211821
0.000203569
0.000190988
0.000172335
0.000145663
0.00011021
7.33351e-05
4.66243e-05
3.55732e-05
2.77861e-05
2.87238e-05
3.62452e-05
4.84798e-05
7.64786e-05
0.000115236
0.00015067
0.000176918
0.000195006
0.000207006
0.000214724
0.000219539
0.000222442
0.00022412
0.000225021
0.000225411
0.000225412
0.000225025
0.000224126
0.000222449
0.000219547
0.000214735
0.000207022
0.00019503
0.000176951
0.000150699
0.000115228
7.64776e-05
4.85009e-05
3.6269e-05
2.87287e-05
2.93622e-05
3.67303e-05
4.97885e-05
7.85924e-05
0.000118513
0.000153929
0.000179857
0.000197523
0.000209099
0.000216436
0.000220932
0.000223586
0.000225083
0.000225866
0.000226197
0.000226198
0.000225869
0.000225088
0.000223593
0.000220941
0.000216447
0.000209114
0.000197545
0.000179885
0.000153954
0.000118513
7.85967e-05
4.9802e-05
3.67468e-05
2.93651e-05
2.96834e-05
3.69765e-05
5.04564e-05
7.96594e-05
0.000120133
0.000155529
0.000181286
0.000198731
0.000210085
0.000217225
0.000221558
0.000224086
0.000225491
0.000226215
0.000226518
0.000226519
0.000226218
0.000225497
0.000224093
0.000221567
0.000217236
0.000210099
0.000198749
0.00018131
0.000155552
0.000120138
7.96662e-05
5.04673e-05
3.699e-05
2.96856e-05
2.96832e-05
3.69754e-05
5.04549e-05
7.96573e-05
0.000120133
0.000155527
0.000181283
0.000198728
0.000210082
0.000217223
0.000221557
0.000224085
0.00022549
0.000226214
0.000226516
0.000226517
0.000226216
0.000225494
0.00022409
0.000221564
0.000217231
0.000210093
0.000198743
0.000181303
0.000155546
0.000120137
7.96639e-05
5.04649e-05
3.6988e-05
2.96851e-05
2.93615e-05
3.67267e-05
4.97842e-05
7.85862e-05
0.000118513
0.000153923
0.000179848
0.000197514
0.00020909
0.000216429
0.000220926
0.000223581
0.000225078
0.000225861
0.000226192
0.000226193
0.000225863
0.000225081
0.000223585
0.00022093
0.000216434
0.000209097
0.000197525
0.000179863
0.000153937
0.000118513
7.8588e-05
4.97932e-05
3.67397e-05
2.93635e-05
2.87229e-05
3.62391e-05
4.84738e-05
7.64677e-05
0.000115239
0.000150662
0.000176904
0.000194991
0.000206993
0.000214714
0.000219529
0.000222434
0.000224113
0.000225014
0.000225403
0.000225403
0.000225014
0.000224114
0.000222434
0.000219529
0.000214713
0.000206994
0.000194995
0.000176913
0.000150669
0.00011523
7.64581e-05
4.84811e-05
3.62532e-05
2.87253e-05
2.77767e-05
3.55258e-05
4.65818e-05
7.33318e-05
0.000110245
0.000145624
0.000172279
0.000190943
0.000203538
0.000211797
0.000217069
0.000220335
0.00022228
0.000223356
0.000223831
0.000223831
0.000223355
0.000222278
0.00022033
0.000217061
0.000211787
0.000203527
0.000190936
0.000172279
0.000145621
0.00011022
7.3295e-05
4.65876e-05
3.55426e-05
2.77798e-05
2.65365e-05
3.45986e-05
4.41911e-05
6.91945e-05
0.000103458
0.000138612
0.000165676
0.000184999
0.000198297
0.000207208
0.000213041
0.000216762
0.00021905
0.000220353
0.000220942
0.000220941
0.000220349
0.000219042
0.000216749
0.000213021
0.000207182
0.000198267
0.000184972
0.000165658
0.000138595
0.000103413
6.91215e-05
4.41978e-05
3.46207e-05
2.65411e-05
2.50203e-05
3.34594e-05
4.14183e-05
6.42179e-05
9.49649e-05
0.000129309
0.000156625
0.000176586
0.000190612
0.000200222
0.000206674
0.000210913
0.000213602
0.000215178
0.000215903
0.000215901
0.00021517
0.000213588
0.00021089
0.000206639
0.000200173
0.000190551
0.000176524
0.000156574
0.000129263
9.49004e-05
6.41027e-05
4.14255e-05
3.3489e-05
2.50273e-05
2.32483e-05
3.20919e-05
3.84275e-05
5.85243e-05
8.54764e-05
0.000117331
0.000144509
0.000164907
0.00017954
0.000189786
0.000196844
0.000201622
0.000204746
0.000206625
0.000207505
0.000207502
0.000206615