/*--------------------------------*- C++ -*----------------------------------*\
| =========                 |                                                 |
| \\      /  F ield         | OpenFOAM: The Open Source CFD Toolbox           |
|  \\    /   O peration     | Version:  2312                                  |
|   \\  /    A nd           | Website:  www.openfoam.com                      |
|    \\/     M anipulation  |                                                 |
\*---------------------------------------------------------------------------*/
FoamFile
{
    version     2.0;
    format      ascii;
    arch        "LSB;label=32;scalar=64";
    class       surfaceScalarField;
    location    "100";
    object      phi;
}
// * * * * * * * * * * * * * * * * * * * * * * * * * * * * * * * * * * * * * //

dimensions      [1 0 -1 0 0 0 0];

oriented        oriented;

internalField   nonuniform List<scalar> 
78300
(
0.00016715
0.000107141
0.0074851
0.00387882
0.000404198
0.00972219
0.00489219
0.00360962
0.0150144
0.00570767
0.00463363
0.0196759
0.00600733
0.00568162
0.0242889
0.00586589
0.00655319
0.0286326
0.00542605
0.00721575
0.0326448
0.00481957
0.007663
0.0363183
0.00413244
0.0079384
0.0396333
0.00341752
0.00810383
0.0425413
0.00269755
0.0082083
0.0450065
0.0019777
0.00827876
0.047005
0.00125749
0.0083268
0.0485195
0.00053777
0.00835571
0.0495363
-0.000176872
0.00836501
0.0500466
-0.00087871
0.00835331
0.0500455
-0.00155793
0.00831872
0.0495328
-0.00220388
0.00825912
0.0485129
-0.00280538
0.00817112
0.0469943
-0.00335117
0.00805014
0.0449905
-0.00382917
0.00788903
0.0425192
-0.00422501
0.00767458
0.0396058
-0.00451929
0.0073808
0.0362883
-0.00469027
0.00697538
0.0326163
-0.00468343
0.00642915
0.0286083
-0.00442959
0.00574516
0.0242712
-0.00388718
0.00491616
0.0196664
-0.00336156
0.00409919
0.0150126
-7.82204e-05
0.000827191
0.00972753
0.000189418
0.00749175
0.00198827
0.00548716
0.00965341
0.00447572
0.00317317
0.0176332
0.00614423
0.00577039
0.0246588
0.00711872
0.00687819
0.0305666
0.0076078
0.00800225
0.0359432
0.00764402
0.00898139
0.0408977
0.0073354
0.00970897
0.0454027
0.00677411
0.0101833
0.049446
0.00602404
0.0104541
0.0530281
0.00513828
0.010587
0.056137
0.00416043
0.0106413
0.0587556
0.00312214
0.0106571
0.0608687
0.00204546
0.0106563
0.0624642
0.000948026
0.0106478
0.0635327
-0.000154253
0.0106335
0.0640678
-0.00124512
0.0106123
0.0640658
-0.002308
0.0105826
0.0635264
-0.00332528
0.0105411
0.0624524
-0.00427917
0.0104839
0.0608498
-0.00515124
0.0104046
0.0587284
-0.00592145
0.0102921
0.0561016
-0.00656677
0.0101263
0.0529873
-0.00706235
0.00987533
0.0494061
-0.00737201
0.00950082
0.0453716
-0.00743125
0.0089672
0.0408833
-0.00713924
0.00825602
0.0359501
-0.00643713
0.00740628
0.0305935
-0.00499975
0.00645067
0.0246992
-0.00259217
0.00363021
0.0176791
0.00495375
0.0096652
0.00617949
0.00564953
0.0199247
0.00833143
0.00582407
0.0271239
0.00922876
0.00744782
0.0347524
0.00940374
0.00814729
0.0409935
0.00924099
0.00891488
0.0464797
0.00886457
0.00966445
0.0513696
0.00831154
0.0102806
0.0557341
0.00759417
0.0107142
0.0596225
0.00672978
0.0109746
0.0630496
0.0057441
0.0111032
0.0660126
0.00466582
0.0111488
0.0685034
0.0035212
0.0111506
0.0705115
0.00233264
0.0111338
0.072027
0.0011188
0.0111107
0.0730417
-0.000104101
0.0110864
0.0735496
-0.00132061
0.0110608
0.0735477
-0.00251557
0.0110329
0.0730355
-0.00367391
0.0109998
0.0720155
-0.00478097
0.0109579
0.0704934
-0.00582225
0.0109005
0.068478
-0.00678391
0.0108159
0.065981
-0.00765246
0.0106846
0.063016
-0.00841567
0.01048
0.0595946
-0.00906061
0.0101766
0.0557219
-0.00956583
0.00976392
0.0513847
-0.00987486
0.00925943
0.0465352
-0.00981714
0.00870271
0.0410835
-0.00889647
0.00802584
0.0348313
-0.00649961
0.00599431
0.0271658
0.00479295
0.0199278
0.00663783
0.00639906
0.0279849
0.00936227
0.00709441
0.0368354
0.0101522
0.00831229
0.0443834
0.0100969
0.00868776
0.050481
0.00967903
0.00916338
0.0557569
0.00910431
0.00969434
0.060421
0.00842376
0.0101866
0.0645824
0.00763635
0.0105693
0.068293
0.00674127
0.0108191
0.071565
0.00574808
0.0109531
0.0743949
0.00467386
0.011006
0.0767735
0.003538
0.0110119
0.0786908
0.00235898
0.0109955
0.0801377
0.00115313
0.0109711
0.0811064
-6.42238e-05
0.0109447
0.0815915
-0.00127921
0.0109182
0.0815901
-0.00247816
0.0108908
0.0811019
-0.00364822
0.0108607
0.0801296
-0.00477668
0.0108242
0.0786785
-0.00585179
0.0107751
0.076757
-0.00686216
0.010702
0.0743758
-0.00779799
0.0105878
0.0715471
-0.00865169
0.0104126
0.0682817
-0.00941745
0.0101654
0.0645848
-0.0100787
0.00985582
0.0604455
-0.010561
0.0095153
0.0558139
-0.010627
0.0091688
0.0505661
-0.0097514
0.00873452
0.0444535
-0.00683481
0.00705614
0.0368518
0.00535571
0.0279747
0.0079555
0.00647763
0.0361846
0.0106407
0.0077429
0.0461484
0.0110804
0.00868223
0.0536948
0.010725
0.00884557
0.0594554
0.0100843
0.00911142
0.064408
0.00933992
0.00946577
0.0688251
0.00853685
0.00983913
0.0727955
0.0076709
0.0101594
0.0763482
0.00673309
0.0103861
0.0794859
0.00572324
0.0105174
0.0822014
0.00464922
0.010575
0.0844847
0.00352322
0.0105864
0.0863256
0.00235893
0.0105738
0.0877148
0.00116985
0.0105515
0.088645
-3.14416e-05
0.0105263
0.089111
-0.00123284
0.0105008
0.0891101
-0.00242282
0.010475
0.0886422
-0.00359028
0.0104472
0.0877098
-0.00472478
0.0104145
0.0863183
-0.00581629
0.0103707
0.0844755
-0.00685582
0.0103058
0.0821915
-0.00783647
0.0102057
0.0794778
-0.0087547
0.0100581
0.0763452
-0.00960807
0.00986272
0.0728011
-0.0103837
0.00964061
0.068843
-0.0110191
0.00942454
0.0644415
-0.0113176
0.00922584
0.0594993
-0.0107654
0.00896257
0.0537243
-0.00794953
0.00758207
0.0461403
0.0054603
0.0361645
0.00885758
0.00614766
0.044161
0.0115371
0.0078181
0.055013
0.0117749
0.00865025
0.0624087
0.0112326
0.00872597
0.067864
0.0104403
0.00886342
0.0725446
0.00956862
0.00908538
0.0767495
0.00866357
0.00935175
0.080551
0.00772531
0.0096026
0.0839623
0.00674354
0.00979331
0.0869792
0.00571234
0.00991068
0.089592
0.00463294
0.00996579
0.0917898
0.00351196
0.00997912
0.093562
0.00235875
0.00996939
0.0948995
0.00118359
0.00994953
0.0957952
-3.16393e-06
0.00992647
0.096244
-0.00119138
0.00990301
0.0962435
-0.00237135
0.00987952
0.0957935
-0.0035338
0.00985493
0.0948966
-0.00466973
0.00982627
0.0935579
-0.00577102
0.00978839
0.0917849
-0.00683106
0.00973278
0.0895871
-0.0078457
0.00964928
0.0869756
-0.00881394
0.00953177
0.0839617
-0.00973492
0.0093872
0.0805551
-0.010595
0.00923875
0.0767593
-0.0113367
0.00911124
0.0725594
-0.0117868
0.00900041
0.0678775
-0.0114318
0.00881555
0.0624066
-0.00868847
0.00761939
0.0549871
0.00532558
0.0441349
0.00941076
0.00561523
0.0517918
0.0119997
0.00752012
0.0632862
0.0121403
0.00829636
0.0704733
0.0115303
0.00835131
0.0756772
0.0106764
0.00842284
0.0801446
0.00973905
0.00855855
0.084173
0.00877074
0.00874141
0.0878258
0.00778118
0.00892761
0.0911096
0.00676452
0.00907765
0.0940165
0.00571398
0.00917427
0.0965355
0.00462745
0.00922136
0.098655
0.00350788
0.0092331
0.100364
0.00236149
0.00922445
0.101655
0.0011962
0.00920643
0.102519
2.04316e-05
0.00918546
0.102952
-0.00115742
0.00916439
0.102952
-0.00232907
0.00914375
0.102518
-0.00348644
0.00912258
0.101653
-0.00462212
0.00909857
0.100362
-0.00572935
0.00906721
0.0986524
-0.00680314
0.00902209
0.096533
-0.00784099
0.00895653
0.0940148
-0.00884233
0.00886882
0.0911093
-0.0098035
0.00876803
0.0878275
-0.0107061
0.00867374
0.0841764
-0.0114933
0.00860096
0.0801475
-0.0120088
0.00853482
0.0756737
-0.0117732
0.00838559
0.0704544
-0.00917911
0.00734869
0.0632536
0.00505073
0.0517659
0.00972496
0.00500431
0.0589433
0.0121743
0.00697282
0.0709042
0.0122507
0.00769328
0.0778653
0.0116279
0.00774969
0.0828536
0.0107669
0.00779158
0.0871458
0.00981325
0.00787663
0.0910248
0.00882074
0.00800147
0.0945473
0.00780658
0.00813598
0.0977168
0.00677112
0.00824881
0.100524
0.00570968
0.00832369
0.102958
0.00461962
0.00836063
0.105007
0.0035022
0.00836903
0.106659
0.00236184
0.00836037
0.107907
0.00120481
0.00834374
0.108743
3.82424e-05
0.00832474
0.109162
-0.00113047
0.00830598
0.109161
-0.00229406
0.00828814
0.108742
-0.0034455
0.00827044
0.107906
-0.00457813
0.00825087
0.106658
-0.00568626
0.0082259
0.105006
-0.00676578
0.00819091
0.102957
-0.00781435
0.00814182
0.100523
-0.00882984
0.00807906
0.0977163
-0.00980515
0.008011
0.0945472
-0.0107185
0.00795193
0.0910243
-0.0115165
0.00791006
0.0871425
-0.0120633
0.00786777
0.0828429
-0.0119257
0.00774491
0.0778418
-0.00950633
0.00686242
0.0708731
0.0046793
0.0589225
0.00991118
0.00435984
0.0654855
0.0121984
0.00624978
0.0777946
0.0122153
0.00689928
0.0845328
0.0115915
0.00695924
0.0893327
0.0107427
0.00698823
0.0934754
0.00979712
0.00704424
0.0972261
0.00880545
0.00713084
0.100635
0.00778804
0.0072272
0.103703
0.00674921
0.00731007
0.106423
0.00568703
0.00736598
0.108781
0.00459964
0.0073934
0.110767
0.00348778
0.0073985
0.112369
0.00235507
0.0073898
0.113578
0.00120698
0.00737456
0.114388
4.99492e-05
0.00735751
0.114795
-0.00110927
0.00734104
0.114795
-0.00226388
0.00732575
0.114388
-0.00340731
0.00731105
0.113578
-0.00453347
0.00729528
0.112368
-0.00563721
0.00727576
0.110766
-0.0067146
0.00724918
0.10878
-0.00776291
0.00721328
0.106422
-0.00877853
0.0071692
0.103703
-0.00975247
0.00712362
0.100634
-0.0106629
0.00708654
0.0972239
-0.0114629
0.0070631
0.0934702
-0.0120348
0.00703676
0.0893213
-0.0119869
0.00694022
0.0845125
-0.00974259
0.0062064
0.0777705
0.00421743
0.0654714
0.0100304
0.00369006
0.0713049
0.0121592
0.00539222
0.083876
0.0121185
0.00595549
0.0904099
0.0114909
0.0060161
0.0950466
0.010655
0.00603922
0.0990606
0.00972398
0.00607799
0.102701
0.00874387
0.0061388
0.106011
0.00773458
0.00620765
0.108992
0.00670215
0.00626772
0.111635
0.0056465
0.00630862
0.113928
0.00456668
0.00632842
0.115858
0.00346363
0.00633111
0.117416
0.0023406
0.00632292
0.118593
0.0012027
0.00630944
0.119381
5.60574e-05
0.00629455
0.119777
-0.00109276
0.00628031
0.119777
-0.00223716
0.00626729
0.119381
-0.00337081
0.00625505
0.118593
-0.00448788
0.00624226
0.117416
-0.00558341
0.00622692
0.115858
-0.00665358
0.00620681
0.113927
-0.00769521
0.00618068
0.111634
-0.00870409
0.00614994
0.108991
-0.00967109
0.00611963
0.10601
-0.0105767
0.00609711
0.102698
-0.0113794
0.00608565
0.0990559
-0.0119763
0.00607173
0.0950378
-0.0120057
0.00599949
0.0903956
-0.00991718
0.00540514
0.08386
0.00366919
0.0712966
0.0101139
0.00299029
0.0763047
0.0121026
0.00442731
0.0890706
0.0120087
0.004893
0.095428
0.0113736
0.00495044
0.0999274
0.010547
0.00497039
0.103833
0.00962962
0.0049986
0.107379
0.00866289
0.00504166
0.110606
0.00766509
0.00509051
0.113513
0.00664266
0.0051334
0.116092
0.00559647
0.00516278
0.118329
0.00452637
0.00517682
0.120214
0.00343346
0.00517811
0.121735
0.00232097
0.00517097
0.122884
0.00119379
0.00515963
0.123654
5.79048e-05
0.00514711
0.12404
-0.00108019
0.0051351
0.12404
-0.00221397
0.00512416
0.123654
-0.00333716
0.00511396
0.122884
-0.0044441
0.0051035
0.121735
-0.00553001
0.00509138
0.120213
-0.0065911
0.00507619
0.118329
-0.00762409
0.00505732
0.116091
-0.00862467
0.00503613
0.113513
-0.00958451
0.00501655
0.110605
-0.0104862
0.00500381
0.107377
-0.0112929
0.00500018
0.103829
-0.0119116
0.00499532
0.0999217
-0.0120041
0.00494408
0.0954195
-0.0100455
0.00448008
0.0890609
0.00304236
0.0763001
0.0101748
0.00225763
0.0804026
0.0120495
0.00337656
0.09331
0.0119101
0.00373724
0.0995242
0.0112662
0.00378832
0.103913
0.010445
0.00380659
0.10773
0.00953836
0.00382813
0.1112
0.0085833
0.00385875
0.114359
0.00759631
0.00389284
0.117207
0.00658361
0.00392271
0.119733
0.00554667
0.00394316
0.121925
0.00448583
0.00395284
0.123773
0.00340253
0.00395331
0.125264
0.00229991
0.00394754
0.126391
0.00118274
0.0039385
0.127146
5.69266e-05
0.00392845
0.127524
-0.00107114
0.0039187
0.127524
-0.00219495
0.00390974
0.127146
-0.00330833
0.00390136
0.126391
-0.00440576
0.00389294
0.125264
-0.00548255
0.00388351
0.123773
-0.00653501
0.00387228
0.121925
-0.0075599
0.00385907
0.119733
-0.00855309
0.00384505
0.117206
-0.00950695
0.00383309
0.114358
-0.0104059
0.00382681
0.111199
-0.0112166
0.00382782
0.107728
-0.0118525
0.00382841
0.103909
-0.0119933
0.00379431
0.0995196
-0.0101374
0.00345343
0.0933048
0.00234933
0.0804004
0.0102182
0.00149429
0.0835334
0.0120068
0.00226071
0.0965393
0.0118322
0.00251195
0.102645
0.0111803
0.00255433
0.106949
0.0103623
0.00257165
0.1107
0.0094634
0.00258897
0.114111
0.00851726
0.0026107
0.117219
0.00753874
0.0026337
0.120022
0.00653379
0.00265343
0.122508
0.00550422
0.00266679
0.124667
0.00445083
0.00267294
0.126487
0.00337525
0.00267287
0.127956
0.00228069
0.00266848
0.129065
0.00117181
0.0026617
0.129809
5.43622e-05
0.0026541
0.130182
-0.00106532
0.0026466
0.130182
-0.00218083
0.0026396
0.129809
-0.00328608
0.00263305
0.129065
-0.00437563
0.00262656
0.127956
-0.00544499
0.00261969
0.126487
-0.00649051
0.00261199
0.124667
-0.007509
0.00260351
0.122508
-0.00849648
0.00259514
0.120021
-0.00944588
0.0025887
0.117219
-0.0103429
0.00258648
0.114111
-0.0111564
0.0025894
0.110698
-0.0118045
0.00259233
0.106948
-0.0119799
0.00257221
0.102642
-0.0102006
0.00234942
0.0965367
0.00160453
0.0835325
0.0102457
0.00070828
0.0856479
0.0119766
0.00110124
0.0987159
0.0117782
0.00124045
0.104748
0.0111205
0.00127249
0.108997
0.0103043
0.00128915
0.112702
0.00941048
0.00130374
0.116075
0.00847031
0.00131882
0.119148
0.00749752
0.00133311
0.12192
0.0064978
0.00134461
0.12438
0.00547316
0.00135203
0.126517
0.00442478
0.00135513
0.128317
0.00335449
0.00135456
0.129771
0.00226553
0.00135139
0.13087
0.0011625
0.00134673
0.131606
5.10501e-05
0.00134146
0.131975
-0.00106259
0.00133616
0.131975
-0.00217212
0.00133114
0.131606
-0.00327152
0.00132644
0.13087
-0.00435551
0.00132201
0.129771
-0.00541964
0.0013177
0.128317
-0.00646038
0.00131342
0.126517
-0.00747457
0.00130927
0.12438
-0.00845832
0.00130567
0.12192
-0.00940488
0.00130345
0.119148
-0.0103006
0.00130361
0.116074
-0.0111159
0.00130649
0.112701
-0.0117717
0.00130949
0.108996
-0.0119694
0.00130116
0.104747
-0.0102407
0.00119319
0.0987148
0.000823746
0.0856477
0.0102582
-8.87343e-05
0.0867131
0.0119596
-7.95235e-05
0.0998113
0.011749
-5.38472e-05
0.105806
0.0110882
-3.31468e-05
0.110027
0.0102728
-1.71889e-05
0.11371
0.00938157
-4.68436e-06
0.117063
0.00844444
4.84482e-06
0.120119
0.00747455
1.16185e-05
0.122876
0.00647741
1.5871e-05
0.125323
0.00545522
1.79354e-05
0.127448
0.00440931
1.8208e-05
0.129239
0.00334168
1.70945e-05
0.130686
0.0022556
1.49989e-05
0.131778
0.00115567
1.22737e-05
0.132511
4.74592e-05
9.21729e-06
0.132878
-0.00106288
6.06175e-06
0.132878
-0.0021691
2.99265e-06
0.132511
-0.0032653
2.06012e-07
0.131778
-0.00434624
-2.09771e-06
0.130685
-0.0054076
-3.7127e-06
0.129239
-0.00644591
-4.47957e-06
0.127448
-0.00745806
-4.35829e-06
0.125323
-0.0084402
-3.45478e-06
0.122876
-0.00938566
-2.01933e-06
0.120119
-0.0102811
-3.53959e-07
0.117063
-0.0110973
1.33115e-06
0.11371
-0.0117568
3.04459e-06
0.110027
-0.0119651
5.19181e-06
0.105806
-0.0102611
1.01306e-05
0.0998109
2.3588e-05
0.0867134
0.0102565
-0.000883803
0.0867129
0.0119565
-0.00125866
0.0998111
0.0117449
-0.0013472
0.105806
0.0110837
-0.00133835
0.110027
0.0102682
-0.00132344
0.11371
0.00937703
-0.00131323
0.117063
0.00844002
-0.00130928
0.120119
0.0074702
-0.00130997
0.122876
0.00647307
-0.00131289
0.125323
0.00545086
-0.00131614
0.127448
0.00440493
-0.0013187
0.129239
0.00333734
-0.0013204
0.130686
0.00225139
-0.00132149
0.131778
0.00115167
-0.00132237
0.132511
4.37692e-05
-0.00132331
0.132878
-0.00106617
-0.00132441
0.132878
-0.00217195
-0.00132558
0.132511
-0.00326769
-0.00132647
0.131778
-0.00434822
-0.0013266
0.130685
-0.00540932
-0.00132539
0.129239
-0.0064476
-0.00132241
0.127448
-0.00746005
-0.0013177
0.125323
-0.00844282
-0.00131198
0.122876
-0.00938912
-0.00130669
0.120119
-0.0102854
-0.00130353
0.117063
-0.0111022
-0.00130334
0.11371
-0.0117617
-0.00130345
0.110027
-0.0119694
-0.00129151
0.105806
-0.0102637
-0.00117446
0.0998108
-0.000778859
0.0867131
0.0102405
-0.00166391
0.0856472
0.0119668
-0.00241289
0.0987152
0.0117655
-0.00261565
0.104748
0.0111065
-0.0026188
0.108997
0.0102899
-0.00260575
0.112702
0.00939646
-0.00259888
0.116075
0.00845676
-0.00260171
0.119148
0.00748427
-0.00261093
0.12192
0.00648465
-0.00262185
0.124381
0.00545999
-0.00263088
0.126517
0.0044116
-0.00263648
0.128317
0.00334145
-0.0026388
0.129771
0.00225287
-0.0026389
0.13087
0.00115052
-0.00263795
0.131606
4.00254e-05
-0.00263683
0.131975
-0.00107243
-0.00263596
0.131975
-0.0021806
-0.00263531
0.131606
-0.00327863
-0.00263439
0.13087
-0.00436139
-0.00263235
0.129771
-0.00542474
-0.00262815
0.128317
-0.00646542
-0.00262104
0.126517
-0.00748055
-0.00261105
0.12438
-0.00846626
-0.00259957
0.12192
-0.00941544
-0.00258941
0.119148
-0.0103138
-0.00258392
0.116075
-0.0111309
-0.00258469
0.112702
-0.0117868
-0.00258639
0.108996
-0.0119823
-0.00256479
0.104747
-0.0102485
-0.00233535
0.0987143
-0.00156656
0.0856468
0.0102088
-0.00241667
0.0835322
0.011989
-0.00351892
0.0965379
0.0118093
-0.00383533
0.102644
0.0111552
-0.00385049
0.106949
0.010337
-0.00384058
0.1107
0.00943905
-0.00383906
0.114112
0.00849399
-0.00385094
0.117219
0.00751623
-0.0038709
0.120022
0.00651163
-0.00389151
0.122508
0.00548215
-0.00390734
0.124667
0.00442886
-0.00391641
0.126487
0.0033536
-0.00391946
0.127956
0.00225973
-0.00391855
0.129065
0.00115201
-0.00391578
0.129809
3.61896e-05
-0.00391267
0.130182
-0.00108149
-0.00390994
0.130182
-0.00219473
-0.0039076
0.129809
-0.00329765
-0.00390495
0.129065
-0.00438515
-0.00390071
0.127956
-0.00545316
-0.0038933
0.126487
-0.00649861
-0.00388144
0.124667
-0.00751875
-0.00386505
0.122508
-0.00850969
-0.00384618
0.120022
-0.00946383
-0.00382925
0.117219
-0.0103657
-0.00381966
0.114111
-0.0111826
-0.00381999
0.110699
-0.0118312
-0.00382229
0.106948
-0.012003
-0.00379058
0.102642
-0.0102143
-0.00344741
0.0965354
-0.00232303
0.0835305
0.0101593
-0.00313188
0.0804006
0.0120209
-0.00455391
0.0933075
0.0118743
-0.00498268
0.099523
0.0112281
-0.00500972
0.103912
0.0104075
-0.00500488
0.10773
0.00950299
-0.00501166
0.1112
0.00855006
-0.00503608
0.114359
0.00756455
-0.00507015
0.117207
0.00655262
-0.00510302
0.119733
0.00551602
-0.00512727
0.121925
0.00445546
-0.00514057
0.123773
0.00337271
-0.00514467
0.125264
0.00227115
-0.00514287
0.126391
0.00115567
-0.00513839
0.127146
3.2158e-05
-0.00513342
0.127524
-0.00109304
-0.00512899
0.127524
-0.00221363
-0.00512507
0.127146
-0.00332366
-0.00512074
0.126391
-0.00441806
-0.0051142
0.125264
-0.00549286
-0.00510316
0.123773
-0.00654515
-0.0050856
0.121925
-0.00757241
-0.0050611
0.119733
-0.00857073
-0.00503237
0.117206
-0.00953187
-0.00500571
0.114359
-0.0104386
-0.00498917
0.111199
-0.0112553
-0.00498674
0.107728
-0.0118929
-0.00498774
0.10391
-0.0120289
-0.00494481
0.0995193
-0.0101589
-0.00448548
0.093302
-0.00303356
0.0803964
0.0100889
-0.0038032
0.0763013
0.0120593
-0.00549581
0.0890659
0.0119573
-0.00603438
0.0954252
0.011321
-0.00607276
0.099926
0.0104969
-0.00607573
0.103832
0.00958351
-0.00609489
0.107379
0.00862038
-0.0061369
0.110606
0.00762501
-0.0061898
0.113513
0.00660386
-0.00623863
0.116092
0.00555827
-0.00627361
0.118329
0.00448865
-0.00629248
0.120213
0.00339655
-0.00629824
0.121735
0.0022855
-0.00629597
0.122883
0.00116053
-0.00629011
0.123653
2.76714e-05
-0.00628357
0.124039
-0.00110667
-0.00627764
0.124039
-0.00223612
-0.00627226
0.123653
-0.00335476
-0.00626619
0.122883
-0.00445751
-0.00625705
0.121735
-0.00554045
-0.00624168
0.120213
-0.00660092
-0.006217
0.118329
-0.00763673
-0.00618197
0.116092
-0.00864406
-0.00613981
0.113513
-0.00961402
-0.00609911
0.110605
-0.0105273
-0.00607125
0.107378
-0.011344
-0.00606249
0.10383
-0.0119674
-0.00605933
0.0999217
-0.0120555
-0.00600338
0.0954182
-0.010078
-0.00542423
0.0890556
-0.00368577
0.0762931
0.00999165
-0.00442872
0.0712994
0.0120973
-0.00632257
0.0838684
0.01205
-0.00696621
0.0904045
0.0114242
-0.00701499
0.0950439
0.010594
-0.0070293
0.0990595
0.00966936
-0.0070673
0.1027
0.00869443
-0.00713421
0.106011
0.0076884
-0.00721271
0.108992
0.0066576
-0.00728259
0.111635
0.00560269
-0.00733156
0.113927
0.00452346
-0.00735775
0.115858
0.00342144
-0.00736627
0.117416
0.00230021
-0.00736421
0.118593
0.00116505
-0.00735752
0.119381
2.2191e-05
-0.00734986
0.119776
-0.00112188
-0.0073427
0.119776
-0.00226073
-0.00733591
0.119381
-0.00338835
-0.00732793
0.118593
-0.0044996
-0.00731574
0.117416
-0.00559063
-0.00729508
0.115858
-0.00665902
-0.00726145
0.113927
-0.0077031
-0.00721269
0.111635
-0.00871962
-0.00715217
0.108992
-0.00969933
-0.00709114
0.10601
-0.0106207
-0.00704537
0.102699
-0.0114389
-0.00702448
0.0990559
-0.012046
-0.00701322
0.0950368
-0.0120742
-0.00694196
0.0903922
-0.00996361
-0.00623825
0.0838507
-0.00426906
0.0712852
0.00985547
-0.00500886
0.0654768
0.012117
-0.00700805
0.0777827
0.0121317
-0.00774953
0.0845244
0.011515
-0.00780854
0.0893286
0.0106759
-0.00784095
0.093474
0.00973917
-0.00790846
0.097226
0.00875374
-0.00801135
0.100635
0.00773979
-0.00812513
0.103703
0.00670232
-0.00822264
0.106423
0.0056406
-0.00828941
0.108781
0.00455365
-0.00832494
0.110766
0.00344291
-0.00833732
0.112368
0.00231229
-0.00833623
0.113577
0.0011675
-0.00832934
0.114388
1.49662e-05
-0.00832096
0.114794
-0.00113845
-0.00831285
0.114794
-0.0022861
-0.00830473
0.114388
-0.00342176
-0.00829467
0.113577
-0.00454
-0.00827905
0.112368
-0.00563687
-0.00825218
0.110766
-0.00671015
-0.00820778
0.108781
-0.00775907
-0.00814157
0.106423
-0.00878159
-0.00805646
0.103704
-0.00976927
-0.00796617
0.100635
-0.0106991
-0.00789228
0.0972249
-0.0115206
-0.00784968
0.09347
-0.0121107
-0.00782362
0.0893189
-0.0120685
-0.00773393
0.0845055
-0.00980273
-0.0069001
0.0777548
-0.00477394
0.0654543
0.00965329
-0.00553565
0.0589309
0.012079
-0.00751534
0.0708878
0.0121611
-0.00834728
0.0778542
0.011552
-0.00841957
0.0828493
0.0107046
-0.00848512
0.0871451
0.009761
-0.00860114
0.0910255
0.00877424
-0.00875782
0.0945481
0.00776218
-0.0089192
0.0977171
0.00672674
-0.00905134
0.100524
0.00566467
-0.00913876
0.102958
0.00457451
-0.00918472
0.105006
0.00345802
-0.00920136
0.106659
0.00231995
-0.00920164
0.107906
0.0011666
-0.00919479
0.108742
5.26793e-06
-0.00918604
0.109161
-0.0011567
-0.00917719
0.109161
-0.00231205
-0.00916787
0.108741
-0.00345383
-0.0091559
0.107906
-0.00457611
-0.00913675
0.106658
-0.00567429
-0.00910352
0.105006
-0.00674605
-0.00904739
0.102958
-0.0077914
-0.00896096
0.100525
-0.00881055
-0.0088448
0.0977185
-0.00979797
-0.00871377
0.0945499
-0.0107316
-0.00859595
0.0910265
-0.0115562
-0.00851433
0.0871428
-0.0121298
-0.00846002
0.0828391
-0.0120085
-0.00834632
0.0778298
-0.00957416
-0.00737721
0.0708489
-0.0051891
0.0588984
0.00933231
-0.00597382
0.051776
0.0119074
-0.00778069
0.0632674
0.0120638
-0.0087066
0.0704629
0.0114731
-0.00881173
0.0756754
0.0106337
-0.0089423
0.0801466
0.0097044
-0.00913851
0.0841756
0.00873826
-0.00937208
0.0878276
0.0077472
-0.00959325
0.0911101
0.00672768
-0.00976366
0.094016
0.0056747
-0.00987158
0.0965343
0.0045871
-0.00992661
0.0986535
0.00346818
-0.0099465
0.100363
0.00232415
-0.00994749
0.101653
0.00116285
-0.00994057
0.102518
-7.36072e-06
-0.00993143
0.102951
-0.00117794
-0.00992201
0.102951
-0.00234044
-0.00991184
0.102517
-0.00348692
-0.00989834
0.101652
-0.00461002
-0.00987647
0.100362
-0.00570401
-0.00983783
0.0986523
-0.00676561
-0.00977094
0.0965337
-0.00779472
-0.00966431
0.0940166
-0.00879379
-0.00951339
0.0911127
-0.00976174
-0.0093309
0.0878323
-0.0106819
-0.00914848
0.0841815
-0.0114965
-0.00900029
0.0801506
-0.0120456
-0.00888902
0.0756707
-0.0118381
-0.00873294
0.0704391
-0.00924151
-0.00761825
0.0632216
-0.00549561
0.0517352
0.00879356
-0.0062228
0.0441441
0.0114789
-0.00769455
0.0549962
0.0117401
-0.00875855
0.0624054
0.0112163
-0.00895565
0.0678697
0.010433
-0.00920676
0.0725521
0.00956152
-0.00952476
0.0767551
0.00865084
-0.00985674
0.0805539
0.00770504
-0.010143
0.0839627
0.00671655
-0.0103484
0.0869778
0.00568102
-0.0104717
0.0895897
0.00459996
-0.0105316
0.0917872
0.00347979
-0.0105521
0.0935595
0.00232927
-0.0105525
0.0948974
0.00115831
-0.0105449
0.0957933
-2.28739e-05
-0.0105352
0.0962424
-0.0012041
-0.0105254
0.0962421
-0.00237533
-0.0105148
0.0957922
-0.00352679
-0.0105005
0.0948955
-0.00464942
-0.0104771
0.093557
-0.00573524
-0.0104351
0.0917843
-0.00677873
-0.0103607
0.0895873
-0.00777822
-0.0102375
0.0869773
-0.00873632
-0.0100539
0.0839658
-0.00965578
-0.00981522
0.0805623
-0.0105263
-0.00955
0.0767694
-0.011292
-0.00930008
0.0725698
-0.011777
-0.00908427
0.0678823
-0.0114582
-0.00883284
0.0623957
-0.00872652
-0.00753514
0.0549529
-0.00563398
0.0441005
0.00794001
-0.00611488
0.0361707
0.0106545
-0.00706821
0.0461412
0.0111162
-0.00842239
0.0537066
0.0107665
-0.00882375
0.0594756
0.0101192
-0.00926853
0.0644244
0.00936063
-0.00974844
0.0688344
0.00854092
-0.010191
0.072799
0.00766052
-0.0105375
0.0763474
0.00671313
-0.0107684
0.0794825
0.00569856
-0.0108983
0.082197
0.00462406
-0.0109578
0.0844803
0.00350028
-0.0109761
0.0863218
0.00233988
-0.0109749
0.0877117
0.00115544
-0.0109666
0.0886425
-4.08219e-05
-0.0109566
0.089109
-0.00123655
-0.0109467
0.0891084
-0.00241982
-0.0109358
0.0886406
-0.00357869
-0.0109211
0.0877083
-0.00470155
-0.0108969
0.0863168
-0.00577766
-0.0108534
0.0844741
-0.00679801
-0.010775
0.0821905
-0.00775749
-0.010641
0.0794779
-0.008656
-0.0104314
0.0763484
-0.00949759
-0.0101385
0.0728098
-0.010274
-0.00978076
0.0688594
-0.0109279
-0.00939617
0.0644653
-0.0112612
-0.00901725
0.0595241
-0.010747
-0.00857573
0.0537332
-0.00794863
-0.00696978
0.0461183
-0.00549747
0.0361335
0.00668595
-0.00540585
0.0279773
0.00946215
-0.00585626
0.036842
0.0102637
-0.00760149
0.0444154
0.0101901
-0.008305
0.0505209
0.00974236
-0.00901779
0.0557845
0.00913612
-0.00969937
0.0604333
0.00842904
-0.0102601
0.0645841
0.00762405
-0.0106601
0.0682882
0.00672051
-0.0109077
0.0715573
0.00572633
-0.0110392
0.0743867
0.00465578
-0.011097
0.0767663
0.00352586
-0.0111149
0.078685
0.00235294
-0.0111148
0.0801332
0.0011524
-0.0111081
0.081103
-6.08483e-05
-0.0110997
0.0815888
-0.00127283
-0.01109
0.0815878
-0.00246917
-0.0110784
0.0810998
-0.00363567
-0.0110616
0.0801274
-0.00475788
-0.0110345
0.0786761
-0.00582147
-0.0109873
0.0767539
-0.00681324
-0.0109037
0.074372
-0.00772323
-0.0107595
0.0715431
-0.00854765
-0.0105264
0.0682801
-0.0092876
-0.0101811
0.0645905
-0.00993768
-0.00972005
0.0604655
-0.0104319
-0.0091692
0.0558547
-0.0105376
-0.00857011
0.0506247
-0.00970774
-0.0078688
0.044501
-0.00680736
-0.00589584
0.0368559
-0.0048857
0.0279532
0.00627664
-0.0053393
0.0199234
0.00848723
-0.00328454
0.0271445
0.00937435
-0.00595366
0.0347922
0.00949894
-0.0070296
0.0410376
0.00928163
-0.00807827
0.0465074
0.00886305
-0.00898224
0.0513777
0.00828409
-0.0096574
0.0557289
0.007557
-0.0101072
0.0596102
0.00669551
-0.0103756
0.0630351
0.00572025
-0.0105201
0.0659993
0.00465503
-0.0105918
0.0684926
0.00352294
-0.0106258
0.0705034
0.00234412
-0.0106411
0.072021
0.00113647
-0.0106468
0.0730372
-8.40534e-05
-0.0106455
0.073546
-0.00130154
-0.0106375
0.0735445
-0.00250018
-0.0106213
0.0730324
-0.00366348
-0.0105944
0.072012
-0.00477399
-0.0105523
0.0704887
-0.00581338
-0.0104865
0.0684712
-0.00676331
-0.0103817
0.0659712
-0.007607
-0.0102132
0.063003
-0.00833334
-0.00994519
0.0595812
-0.00893665
-0.00953988
0.0557147
-0.00941031
-0.00896592
0.0513958
-0.0097157
-0.00821417
0.0465799
-0.00968945
-0.00732251
0.0411638
-0.00882799
-0.0063185
0.0349154
-0.00648564
-0.00351835
0.0272069
-0.00501939
0.0199146
0.00214363
-0.000119162
0.00965793
0.00462511
-0.000535295
0.0176589
0.00620774
-0.00373278
0.0246845
0.00709232
-0.00471275
0.0305842
0.00751968
-0.00570176
0.0359491
0.007527
-0.00651897
0.0408915
0.00722163
-0.00715267
0.045388
0.00668333
-0.0075914
0.0494276
0.00596555
-0.00787405
0.0530099
0.0051131
-0.00805477
0.0561216
0.00416408
-0.00817568
0.0587437
0.00314717
-0.00826006
0.0608599
0.00208418
-0.00831882
0.0624577
0.000992933
-0.00835594
0.0635277
-0.000109744
-0.0083724
0.0640635
-0.00120714
-0.00836769
0.0640616
-0.00228195
-0.0083407
0.0635216
-0.00331552
-0.00828988
0.0624461
-0.00428775
-0.00821238
0.060841
-0.00517588
-0.00810306
0.0587154
-0.00595368
-0.0079524
0.0560829
-0.00659219
-0.00774306
0.0529621
-0.00706177
-0.00744627
0.0493757
-0.00733051
-0.00702557
0.0453418
-0.00734407
-0.00645587
0.0408656
-0.00701699
-0.00574719
0.0359589
-0.00630628
-0.00488518
0.0306376
-0.00488601
-0.00402473
0.024774
-0.00250125
-0.000765298
0.0177518
-0.000174488
0.00967555
0.000150678
0.00748955
0.00372725
0.00972618
0.00461756
0.0150143
0.00535874
0.019671
0.00564771
0.0242795
0.00555338
0.0286197
0.00519122
0.0326302
0.00467099
0.0363036
0.00406118
0.0396203
0.00340573
0.0425309
0.00272621
0.0449987
0.00203088
0.0469992
0.00132312
0.048515
0.000606911
0.0495326
-0.00011155
0.050043
-0.000823825
0.0500415
-0.00152007
0.0495279
-0.00219005
0.0485062
-0.00282345
0.046985
-0.00340913
0.0449774
-0.00393279
0.0425015
-0.0043742
0.0395829
-0.00470612
0.0362605
-0.00489631
0.0325853
-0.00488509
0.0285773
-0.00460605
0.024244
-0.00401458
0.0196483
-0.00341147
0.0150095
-7.79362e-05
0.00973922
0.00750696
0.000714501
0.000552547
0.00621805
-0.000165968
0.00219263
0.00841003
-0.001657
0.00315387
0.0133515
-0.00219895
0.00258852
0.0176293
-0.00208054
0.0023602
0.0218103
-0.0015942
0.00243799
0.0257083
-0.00102604
0.00279226
0.0292844
-0.000520779
0.00327666
0.0325364
-0.000130566
0.00378709
0.035456
0.000141823
0.00426133
0.0380076
0.000310189
0.00467129
0.0401668
0.000391332
0.00500641
0.0419175
0.000402091
0.0052626
0.0432461
0.000359632
0.0054383
0.0441405
0.00028136
0.00553334
0.0445915
0.000183205
0.00554913
0.0445945
7.65636e-05
0.00548933
0.0441501
-3.55496e-05
0.0053607
0.0432643
-0.000159178
0.00517108
0.0419469
-0.00030487
0.00492659
0.0402096
-0.000478907
0.00463009
0.0380631
-0.000661325
0.0042663
0.0355219
-0.000801742
0.00382396
0.0326047
-0.000841353
0.0033119
0.029344
-0.000765308
0.00278134
0.025751
-0.000674568
0.00234538
0.0218351
-0.000723405
0.00207917
0.0176361
-0.00118141
0.00212513
0.0133454
-0.00093257
0.0010933
0.00838538
0.00036957
0.00618961
0.00265271