/*--------------------------------*- C++ -*----------------------------------*\
| =========                 |                                                 |
| \\      /  F ield         | OpenFOAM: The Open Source CFD Toolbox           |
|  \\    /   O peration     | Version:  2312                                  |
|   \\  /    A nd           | Website:  www.openfoam.com                      |
|    \\/     M anipulation  |                                                 |
\*---------------------------------------------------------------------------*/
FoamFile
{
    version     2.0;
    format      ascii;
    arch        "LSB;label=32;scalar=64";
    class       volScalarField;
    location    "100";
    object      T;
}
// * * * * * * * * * * * * * * * * * * * * * * * * * * * * * * * * * * * * * //

dimensions      [0 0 0 1 0 0 0];

internalField   nonuniform List<scalar> 
27000
(
425.885
355.95
347.316
343.065
342.179
342.128
342.276
342.495
342.739
342.96
343.146
343.294
343.404
343.476
343.512
343.514
343.481
343.413
343.31
343.17
342.993
342.78
342.539
342.31
342.133
342.123
342.911
347.056
355.568
425.199
335.289
354.183
348.191
346.671
346.321
346.385
346.524
346.672
346.818
346.948
347.055
347.139
347.199
347.238
347.258
347.26
347.245
347.211
347.158
347.083
346.984
346.859
346.709
346.54
346.357
346.228
346.519
348.022
353.938
335.372
341.798
345.058
347.68
347.563
347.474
347.493
347.547
347.602
347.653
347.702
347.744
347.778
347.804
347.821
347.83
347.831
347.826
347.813
347.793
347.764
347.725
347.676
347.616
347.544
347.464
347.42
347.499
347.628
345.076
341.859
341.835
345.635
347.23
347.598
347.67
347.711
347.756
347.797
347.832
347.861
347.886
347.906
347.921
347.931
347.937
347.938
347.935
347.928
347.916
347.899
347.875
347.843
347.801
347.749
347.694
347.647
347.58
347.226
345.644
341.843
342.216
346.157
347.394
347.662
347.747
347.791
347.827
347.86
347.889
347.912
347.93
347.945
347.955
347.962
347.966
347.967
347.965
347.96
347.951
347.938
347.919
347.894
347.862
347.823
347.783
347.74
347.66
347.399
346.171
342.237
342.617
346.493
347.531
347.747
347.813
347.845
347.871
347.895
347.917
347.935
347.95
347.96
347.968
347.974
347.976
347.977
347.975
347.971
347.965
347.954
347.939
347.92
347.896
347.87
347.843
347.813
347.751
347.543
346.52
342.649
343.022
346.749
347.623
347.809
347.865
347.889
347.906
347.922
347.937
347.95
347.961
347.969
347.975
347.979
347.981
347.982
347.98
347.977
347.972
347.964
347.953
347.939
347.923
347.906
347.89
347.868
347.817
347.639
346.78
343.054
343.388
346.958
347.695
347.853
347.902
347.922
347.933
347.943
347.953
347.962
347.97
347.976
347.98
347.983
347.985
347.985
347.984
347.981
347.977
347.971
347.963
347.954
347.944
347.934
347.924
347.907
347.863
347.711
346.984
343.414
343.704
347.124
347.755
347.888
347.929
347.945
347.953
347.96
347.966
347.972
347.977
347.981
347.984
347.987
347.988
347.988
347.987
347.985
347.982
347.978
347.972
347.967
347.96
347.955
347.947
347.933
347.896
347.768
347.144
343.721
343.963
347.253
347.804
347.915
347.948
347.961
347.967
347.971
347.975
347.979
347.983
347.986
347.988
347.99
347.991
347.991
347.99
347.989
347.986
347.983
347.98
347.976
347.972
347.968
347.963
347.952
347.921
347.813
347.265
343.974
344.167
347.349
347.84
347.935
347.963
347.972
347.977
347.979
347.982
347.985
347.987
347.99
347.991
347.993
347.993
347.993
347.993
347.992
347.99
347.988
347.985
347.982
347.98
347.978
347.974
347.965
347.939
347.846
347.356
344.173
344.32
347.418
347.866
347.95
347.972
347.98
347.983
347.985
347.987
347.989
347.991
347.993
347.994
347.995
347.996
347.996
347.995
347.994
347.993
347.991
347.989
347.987
347.985
347.983
347.981
347.974
347.952
347.869
347.422
344.324
344.43
347.465
347.884
347.96
347.979
347.985
347.987
347.988
347.99
347.991
347.993
347.995
347.996
347.997
347.997
347.997
347.997
347.996
347.995
347.993
347.991
347.99
347.988
347.987
347.985
347.98
347.961
347.885
347.467
344.432
344.5
347.494
347.894
347.965
347.983
347.987
347.989
347.99
347.991
347.993
347.995
347.996
347.997
347.998
347.999
347.999
347.998
347.997
347.996
347.995
347.993
347.991
347.99
347.989
347.988
347.983
347.966
347.895
347.495
344.501
344.535
347.509
347.9
347.968
347.984
347.989
347.99
347.991
347.992
347.994
347.995
347.997
347.998
347.999
347.999
347.999
347.999
347.998
347.997
347.995
347.994
347.992
347.991
347.99
347.989
347.984
347.968
347.9
347.509
344.535
344.535
347.509
347.9
347.968
347.984
347.989
347.99
347.991
347.992
347.994
347.995
347.997
347.998
347.999
347.999
347.999
347.999
347.998
347.997
347.995
347.994
347.992
347.991
347.99
347.989
347.984
347.968
347.9
347.509
344.535
344.501
347.495
347.895
347.966
347.983
347.988
347.989
347.99
347.991
347.993
347.995
347.996
347.997
347.998
347.999
347.999
347.998
347.997
347.996
347.995
347.993
347.991
347.99
347.989
347.988
347.983
347.966
347.895
347.495
344.501
344.431
347.466
347.885
347.96
347.979
347.985
347.987
347.988
347.99
347.992
347.993
347.995
347.996
347.997
347.998
347.998
347.997
347.996
347.995
347.993
347.992
347.99
347.988
347.987
347.985
347.98
347.961
347.885
347.467
344.432
344.322
347.42
347.868
347.951
347.973
347.98
347.983
347.985
347.987
347.989
347.991
347.993
347.994
347.995
347.996
347.996
347.995
347.994
347.993
347.991
347.989
347.987
347.985
347.983
347.981
347.974
347.952
347.87
347.422
344.323
344.169
347.352
347.843
347.937
347.964
347.973
347.977
347.98
347.982
347.985
347.988
347.99
347.992
347.993
347.994
347.994
347.993
347.992
347.99
347.988
347.985
347.982
347.98
347.977
347.974
347.965
347.939
347.846
347.356
344.172
343.967
347.258
347.808
347.918
347.95
347.962
347.968
347.972
347.976
347.98
347.983
347.986
347.988
347.99
347.991
347.991
347.99
347.989
347.986
347.983
347.98
347.976
347.972
347.968
347.963
347.952
347.921
347.813
347.266
343.973
343.71
347.132
347.761
347.891
347.931
347.946
347.954
347.96
347.966
347.972
347.977
347.982
347.985
347.987
347.988
347.988
347.987
347.985
347.982
347.978
347.972
347.966
347.96
347.954
347.947
347.933
347.896
347.768
347.144
343.719
343.398
346.968
347.702
347.857
347.904
347.923
347.934
347.944
347.953
347.962
347.97
347.976
347.98
347.983
347.985
347.985
347.984
347.981
347.977
347.971
347.963
347.954
347.944
347.934
347.923
347.906
347.862
347.711
346.984
343.411
343.033
346.761
347.629
347.812
347.866
347.889
347.906
347.922
347.937
347.951
347.962
347.97
347.976
347.979
347.981
347.981
347.98
347.977
347.971
347.963
347.952
347.938
347.922
347.906
347.889
347.867
347.816
347.638
346.778
343.051
342.628
346.503
347.535
347.748
347.813
347.845
347.87
347.895
347.917
347.936
347.95
347.961
347.969
347.974
347.976
347.977
347.975
347.971
347.964
347.953
347.938
347.919
347.896
347.87
347.843
347.812
347.749
347.54
346.516
342.646
342.223
346.161
347.395
347.661
347.745
347.788
347.825
347.86
347.89
347.913
347.932
347.946
347.956
347.963
347.966
347.967
347.964
347.959
347.95
347.936
347.918
347.893
347.861
347.824
347.784
347.74
347.658
347.393
346.163
342.235
341.836
345.636
347.229
347.594
347.663
347.705
347.752
347.797
347.834
347.864
347.889
347.908
347.923
347.932
347.937
347.938
347.934
347.927
347.914
347.897
347.872
347.841
347.8
347.75
347.697
347.65
347.581
347.219
345.628
341.838
341.809
345.062
347.668
347.546
347.457
347.482
347.543
347.604
347.659
347.707
347.749
347.782
347.806
347.822
347.83
347.831
347.825
347.812
347.79
347.761
347.722
347.673
347.614
347.543
347.466
347.427
347.507
347.63
345.049
341.821
335.303
354.126
348.147
346.626
346.289
346.371
346.524
346.68
346.827
346.957
347.062
347.143
347.201
347.239
347.258
347.26
347.243
347.209
347.155
347.079
346.979
346.853
346.703
346.534
346.354
346.233
346.532
348.035
353.974
335.318
425.705
355.846
347.237
343.014
342.156
342.124
342.282
342.505
342.748
342.968
343.151
343.297
343.405
343.476
343.512
343.512
343.479
343.411
343.306
343.165
342.987
342.772
342.531
342.302
342.126
342.12
342.916
347.069
355.595
425.251
442.988
360.803
345.546
337.715
335.803
335.613
335.747
335.92
336.102
336.274
336.422
336.541
336.632
336.693
336.723
336.719
336.681
336.61
336.505
336.368
336.201
336.015
335.835
335.696
335.642
335.994
338.183
346.307
361.798
444.506
332.215
359.745
350.858
345.424
342.804
342.321
342.577
342.914
343.185
343.389
343.545
343.663
343.748
343.803
343.828
343.823
343.787
343.717
343.614
343.475
343.301
343.091
342.842
342.568
342.423
343.051
345.789
351.221
360.158
332.079
336.658
343.088
348.476
347.655
346.232
345.572
345.476
345.571
345.682
345.765
345.823
345.863
345.891
345.909
345.916
345.911
345.895
345.866
345.823
345.768
345.701
345.621
345.534
345.486
345.642
346.348
347.769
348.555
343.07
336.632
335.585
341.202
345.452
346.802
346.706
346.422
346.289
346.277
346.308
346.342
346.368
346.385
346.396
346.402
346.403
346.4
346.392
346.378
346.359
346.335
346.306
346.278
346.262
346.297
346.451
346.741
346.823
345.457
341.203
335.596
336.104
341.668
344.99
346.237
346.551
346.546
346.496
346.475
346.48
346.494
346.507
346.516
346.523
346.526
346.526
346.524
346.52
346.512
346.501
346.489
346.475
346.466
346.47
346.501
346.558
346.562
346.243
344.991
341.651
336.068
336.508
342.509
345.269
346.163
346.456
346.532
346.537
346.532
346.532
346.538
346.545
346.551
346.555
346.557
346.557
346.556
346.553
346.549
346.542
346.535
346.529
346.526
346.53
346.54
346.536
346.458
346.158
345.249
342.455
336.444
336.855
343.095
345.549
346.231
346.448
346.521
346.542
346.546
346.547
346.55
346.553
346.556
346.558
346.56
346.56
346.559
346.558
346.555
346.552
346.548
346.545
346.544
346.545
346.543
346.521
346.443
346.215
345.509
343.025
336.788
337.188
343.494
345.728
346.3
346.468
346.525
346.544
346.549
346.55
346.55
346.551
346.552
346.553
346.553
346.554
346.553
346.552
346.551
346.55
346.548
346.548
346.548
346.548
346.543
346.522
346.458
346.278
345.684
343.429
337.134
337.494
343.792
345.843
346.347
346.488
346.533
346.548
346.55
346.549
346.547
346.546
346.545
346.545
346.545
346.545
346.545
346.544
346.544
346.544
346.545
346.546
346.548
346.549
346.545
346.529
346.477
346.325
345.806
343.743
337.457
337.764
344.024
345.925
346.378
346.503
346.541
346.551
346.551
346.547
346.544
346.541
346.539
346.538
346.537
346.537
346.537
346.537
346.538
346.539
346.541
346.543
346.547
346.55
346.549
346.536
346.494
346.363
345.9
343.992
337.742
337.996
344.206
345.988
346.402
346.514
346.547
346.553
346.551
346.546
346.541
346.537
346.534
346.532
346.531
346.531
346.531
346.531
346.532
346.534
346.537
346.541
346.545
346.55
346.551
346.543
346.508
346.392
345.973
344.187
337.983
338.184
344.344
346.037
346.421
346.523
346.551
346.555
346.551
346.545
346.539
346.534
346.531
346.529
346.527
346.527
346.527
346.527
346.528
346.531
346.534
346.539
346.544
346.55
346.554
346.548
346.519
346.415
346.028
344.334
338.177
338.327
344.445
346.072
346.435
346.529
346.554
346.556
346.551
346.544
346.537
346.532
346.528
346.526
346.525
346.524
346.524
346.525
346.526
346.528
346.532
346.537
346.543
346.55
346.555
346.552
346.527
346.432
346.068
344.439
338.323
338.422
344.51
346.096
346.445
346.534
346.556
346.557
346.551
346.543
346.536
346.531
346.527
346.525
346.523
346.522
346.522
346.523
346.524
346.527
346.531
346.536
346.543
346.55
346.556
346.555
346.532
346.443
346.093
344.507
338.42
338.469
344.542
346.107
346.449
346.536
346.557
346.557
346.551
346.543
346.536
346.53
346.526
346.524
346.522
346.522
346.522
346.522
346.524
346.526
346.53
346.536
346.543
346.55
346.557
346.556
346.535
346.448
346.105
344.541
338.468
338.469
344.542
346.107
346.449
346.536
346.557
346.557
346.551
346.543
346.536
346.53
346.526
346.524
346.522
346.522
346.522
346.522
346.524
346.526
346.53
346.536
346.543
346.55
346.557
346.556
346.535
346.448
346.105
344.54
338.468
338.42
344.509
346.095
346.444
346.534
346.556
346.557
346.551
346.543
346.536
346.531
346.527
346.524
346.523
346.522
346.522
346.523
346.524
346.527
346.531
346.536
346.543
346.55
346.556
346.555
346.532
346.443
346.093
344.507
338.419
338.324
344.442
346.071
346.435
346.529
346.554
346.556
346.551
346.544
346.537
346.532
346.528
346.526
346.524
346.524
346.524
346.524
346.526
346.528
346.532
346.537
346.543
346.55
346.555
346.553
346.527
346.432
346.067
344.437
338.321
338.18
344.339
346.034
346.42
346.522
346.55
346.555
346.551
346.545
346.539
346.534
346.531
346.528
346.527
346.526
346.526
346.527
346.528
346.53
346.534
346.538
346.544
346.55
346.554
346.548
346.519
346.415
346.027
344.33
338.173
337.989
344.197
345.982
346.399
346.512
346.546
346.553
346.551
346.546
346.541
346.537
346.534
346.532
346.531
346.53
346.53
346.531
346.532
346.534
346.536
346.54
346.545
346.55
346.551
346.543
346.508
346.392
345.971
344.18
337.975
337.752
344.009
345.915
346.373
346.5
346.539
346.55
346.55
346.547
346.544
346.541
346.539
346.537
346.537
346.536
346.536
346.537
346.537
346.538
346.54
346.543
346.546
346.549
346.548
346.536
346.493
346.361
345.896
343.981
337.729
337.474
343.768
345.827
346.338
346.484
346.532
346.547
346.55
346.548
346.546
346.545
346.544
346.544
346.544
346.544
346.544
346.544
346.544
346.544
346.544
346.546
346.548
346.549
346.545
346.528
346.476
346.322
345.798
343.724
337.437
337.159
343.461
345.707
346.29
346.464
346.524
346.544
346.549
346.549
346.549
346.549
346.55
346.551
346.552
346.552
346.552
346.551
346.55
346.549
346.548
346.547
346.548
346.548
346.542
346.52
346.455
346.271
345.669
343.399
337.103
336.818
343.057
345.527
346.222
346.445
346.521
346.542
346.545
346.546
346.547
346.55
346.553
346.556
346.558
346.558
346.558
346.556
346.554
346.551
346.547
346.544
346.543
346.544
346.542
346.519
346.439
346.206
345.489
342.984
336.746
336.47
342.477
345.255
346.158
346.456
346.533
346.538
346.531
346.529
346.534
346.54
346.546
346.551
346.554
346.555
346.554
346.552
346.547
346.541
346.534
346.528
346.525
346.529
346.539
346.535
346.455
346.15
345.23
342.412
336.396
336.078
341.655
344.988
346.238
346.555
346.551
346.499
346.473
346.474
346.486
346.499
346.509
346.517
346.521
346.523
346.522
346.518
346.51
346.5
346.487
346.473
346.464
346.468
346.501
346.559
346.562
346.24
344.985
341.63
336.03
335.585
341.208
345.459
346.812
346.722
346.436
346.294
346.272
346.296
346.328
346.354
346.374
346.387
346.395
346.399
346.397
346.389
346.376
346.357
346.332
346.302
346.272
346.257
346.297
346.458
346.752
346.834
345.471
341.214
335.591
336.655
343.101
348.516
347.705
346.286
345.607
345.484
345.558
345.658
345.739
345.801
345.847
345.879
345.9
345.909
345.906
345.89
345.861
345.818
345.76
345.688
345.603
345.516
345.478
345.657
346.386
347.816
348.615
343.113
336.629
332.21
359.931
351.004
345.577
342.916
342.372
342.579
342.887
343.148
343.355
343.517
343.643
343.734
343.793
343.82
343.816
343.779
343.708
343.601
343.456
343.273
343.052
342.796
342.533
342.429
343.124
345.915
351.366
360.426
332.131
443.633
361.191
345.847
337.909
335.887
335.628
335.727
335.885
336.068
336.246
336.401
336.526
336.622
336.686
336.716
336.713
336.674
336.6
336.491
336.348
336.172
335.975
335.783
335.64
335.606
336.02
338.318
346.556
362.159
445.294
453.157
364.438
347.919
338.665
335.872
335.218
335.169
335.24
335.308
335.345
335.368
335.388
335.408
335.427
335.441
335.45
335.456
335.462
335.476
335.496
335.51
335.488
335.381
335.188
335.009
335.281
337.461
346.137
362.299
450.096
334.029
364.134
355.541
348.906
344.633
342.842
342.431
342.572
342.84
343.08
343.264
343.402
343.506
343.579
343.621
343.633
343.617
343.578
343.517
343.422
343.266
343.013
342.661
342.356
342.55
344.131
348.303
355.049
363.402
334.13
338.147
346.02
352.598
351.831
349.42
347.638
346.882
346.756
346.861
347
347.113
347.194
347.252
347.291
347.315
347.325
347.322
347.307
347.28
347.227
347.127
346.966
346.794
346.816
347.48
349.236
351.701
352.527
346.07
338.12
335.749
342.279
347.756
350.159
350.11
349.362
348.81
348.564
348.496
348.497
348.514
348.531
348.545
348.556
348.565
348.571
348.576
348.58
348.583
348.58
348.567
348.549
348.581
348.784
349.306
350.056
350.126
347.736
342.225
335.628
335.852
341.695
346.078
348.629
349.473
349.454
349.235
349.061
348.967
348.924
348.907
348.9
348.899
348.899
348.902
348.905
348.91
348.918
348.928
348.94
348.956
348.989
349.066
349.22
349.425
349.439
348.595
346.044
341.679
335.89
336.106
342.256
346.124
348.225
349.044
349.246
349.219
349.142
349.077
349.035
349.01
348.997
348.99
348.988
348.987
348.989
348.993
349
349.011
349.026
349.048
349.085
349.141
349.209
349.229
349.027
348.217
346.143
342.337
336.231
336.291
342.934
346.644
348.306
348.906
349.103
349.138
349.116
349.08
349.05
349.029
349.015
349.007
349.003
349.001
349.002
349.006
349.012
349.021
349.035
349.056
349.083
349.114
349.134
349.098
348.91
348.334
346.724
343.084
336.448
336.429
343.481
347.085
348.446
348.888
349.036
349.077
349.075
349.057
349.037
349.02
349.008
349
348.995
348.994
348.994
348.997
349.002
349.011
349.023
349.039
349.058
349.074
349.077
349.04
348.905
348.494
347.186
343.64
336.568
336.551
343.893
347.371
348.547
348.897
349.008
349.04
349.041
349.031
349.016
349.003
348.993
348.986
348.981
348.979
348.979
348.982
348.987
348.994
349.004
349.017
349.031
349.042
349.043
349.016
348.919
348.595
347.462
344.021
336.652
336.676
344.218
347.558
348.61
348.907
348.995
349.018
349.018
349.009
348.998
348.986
348.977
348.97
348.966
348.964
348.964
348.966
348.971
348.978
348.987
348.998
349.01
349.02
349.022
349.003
348.926
348.647
347.624
344.303
336.739
336.799
344.48
347.688
348.651
348.914
348.988
349.005
349.002
348.993
348.982
348.972
348.963
348.957
348.953
348.951
348.951
348.953
348.957
348.964
348.972
348.983
348.994
349.004
349.008
348.994
348.927
348.675
347.728
344.53
336.836
336.912
344.688
347.782
348.68
348.919
348.984
348.996
348.992
348.982
348.971
348.961
348.953
348.946
348.943
348.941
348.941
348.943
348.947
348.953
348.961
348.971
348.983
348.993
348.999
348.988
348.928
348.694
347.805
344.716
336.932
337.005
344.843
347.849
348.7
348.923
348.981
348.991
348.985
348.974
348.963
348.953
348.945
348.939
348.935
348.933
348.933
348.935
348.939
348.945
348.953
348.963
348.975
348.986
348.993
348.985
348.928
348.708
347.862
344.858
337.016
337.071
344.946
347.892
348.713
348.926
348.98
348.988
348.981
348.97
348.958
348.948
348.94
348.934
348.93
348.928
348.928
348.93
348.934
348.94
348.948
348.958
348.97
348.982
348.99
348.982
348.929
348.718
347.899
344.954
337.077
337.104
344.996
347.913
348.72
348.927
348.98
348.987
348.979
348.967
348.956
348.945
348.937
348.931
348.928
348.926
348.926
348.928
348.931
348.937
348.945
348.956
348.968
348.98
348.988
348.981
348.93
348.723
347.918
345.002
337.109
337.104
344.996
347.913
348.719
348.927
348.979
348.986
348.979
348.967
348.955
348.945
348.937
348.931
348.927
348.926
348.926
348.927
348.931
348.937
348.945
348.956
348.968
348.98
348.988
348.981
348.929
348.722
347.917
345.001
337.109
337.07
344.944
347.891
348.712
348.925
348.98
348.988
348.981
348.969
348.958
348.948
348.94
348.934
348.93
348.928
348.928
348.93
348.934
348.94
348.948
348.958
348.97
348.981
348.989
348.981
348.928
348.716
347.896
344.951
337.075
337.005
344.842
347.847
348.699
348.922
348.981
348.991
348.985
348.974
348.963
348.953
348.945
348.939
348.935
348.933
348.933
348.935
348.939
348.945
348.953
348.963
348.974
348.986
348.992
348.982
348.925
348.703
347.854
344.85
337.011
336.913
344.688
347.781
348.678
348.918
348.983
348.996
348.991
348.982
348.971
348.961
348.952
348.946
348.942
348.94
348.94
348.942
348.946
348.952
348.961
348.971
348.982
348.992
348.997
348.985
348.922
348.684
347.79
344.7
336.922
336.803
344.484
347.689
348.65
348.913
348.987
349.004
349.002
348.993
348.982
348.972
348.963
348.957
348.953
348.951
348.951
348.953
348.957
348.963
348.972
348.982
348.993
349.003
349.006
348.989
348.918
348.659
347.703
344.504
336.818
336.685
344.23
347.564
348.611
348.907
348.994
349.018
349.018
349.009
348.997
348.986
348.977
348.971
348.966
348.964
348.964
348.966
348.971
348.977
348.987
348.998
349.009
349.019
349.019
348.997
348.913
348.623
347.586
344.261
336.709
336.57
343.92
347.386
348.551
348.898
349.008
349.04
349.041
349.031
349.017
349.004
348.993
348.986
348.981
348.979
348.979
348.982
348.986
348.994
349.004
349.017
349.031
349.042
349.041
349.01
348.905
348.567
347.416
343.964
336.606
336.463
343.525
347.11
348.455
348.89
349.037
349.077
349.075
349.058
349.038
349.021
349.009
349.001
348.996
348.994
348.994
348.996
349.001
349.01
349.022
349.038
349.058
349.075
349.077
349.038
348.895
348.47
347.145
343.583
336.512
336.341
342.99
346.677
348.317
348.91
349.104
349.14
349.117
349.083
349.053
349.031
349.017
349.009
349.004
349.002
349.002
349.005
349.01
349.019
349.033
349.054
349.083
349.117
349.138
349.102
348.911
348.327
346.709
343.049
336.399
336.161
342.306
346.152
348.237
349.049
349.248
349.222
349.146
349.082
349.04
349.016
349.001
348.994
348.989
348.988
348.988
348.991
348.997
349.006
349.02
349.044
349.084
349.146
349.219
349.243
349.043
348.235
346.166
342.347
336.212
335.889
341.724
346.098
348.64
349.478
349.455
349.238
349.069
348.977
348.935
348.917
348.908
348.904
348.902
348.902
348.903
348.906
348.91
348.916
348.927
348.945
348.985
349.071
349.235
349.447
349.469
348.632
346.094
341.727
335.908
335.747
342.304
347.782
350.166
350.103
349.354
348.814
348.58
348.52
348.521
348.534
348.545
348.555
348.561
348.566
348.568
348.568
348.566
348.562
348.555
348.543
348.538
348.589
348.808
349.337
350.086
350.157
347.783
342.29
335.692
338.187
346.07
352.572
351.77
349.35
347.594
346.884
346.794
346.912
347.048
347.15
347.22
347.269
347.302
347.32
347.324
347.312
347.288
347.249
347.188
347.093
346.953
346.816
346.87
347.542
349.279
351.708
352.531
346.096
338.169
334.23
363.882
355.309
348.673
344.468
342.775
342.45
342.64
342.92
343.151
343.318
343.441
343.532
343.597
343.632
343.636
343.61
343.558
343.481
343.374
343.219
342.99
342.688
342.443
342.68
344.274
348.413
355.066
363.544
334.321
452.14
363.771
347.397
338.345
335.748
335.217
335.23
335.321
335.382
335.404
335.41
335.418
335.43
335.442
335.451
335.455
335.453
335.45
335.45
335.456
335.464
335.452
335.385
335.26
335.168
335.546
337.879
346.662
362.867
450.793
458.815
369.521
353.417
342.861
337.697
335.034
333.786
333.411
333.481
333.671
333.841
333.963
334.043
334.089
334.105
334.091
334.044
333.959
333.827
333.644
333.433
333.281
333.41
334.185
335.976
339.216
344.881
355.56
371.682
461.254
333.249
365.544
357.369
351.612
346.938
343.854
342.13
341.445
341.419
341.694
342.026
342.308
342.51
342.635
342.688
342.67
342.577
342.401
342.136
341.795
341.445
341.25
341.484
342.461
344.439
347.596
352.033
357.28
365.957
332.573
338.188
346.275
353.559
353.548
351.457
349.227
347.636
346.823
346.631
346.794
347.077
347.344
347.545
347.669
347.722
347.704
347.613
347.44
347.184
346.87
346.583
346.491
346.822
347.787
349.45
351.623
353.559
353.503
346.026
337.933
335.753
342.667
348.635
351.888
352.464
351.775
350.917
350.36
350.164
350.205
350.34
350.48
350.587
350.654
350.681
350.669
350.617
350.521
350.379
350.21
350.067
350.062
350.334
350.969
351.864
352.548
351.95
348.657
342.69
335.898
334.757
341.384
346.587
350.206
351.997
352.405
352.245
352.008
351.866
351.825
351.842
351.878
351.911
351.933
351.942
351.936
351.914
351.877
351.829
351.782
351.764
351.822
351.998
352.272
352.462
352.071
350.276
346.637
341.432
334.824
334.435
341.175
346.033
349.531
351.564
352.369
352.56
352.537
352.477
352.438
352.423
352.424
352.43
352.435
352.437
352.434
352.426
352.414
352.402
352.398
352.414
352.463
352.538
352.578
352.401
351.6
349.549
346.012
341.113
334.345
334.572
341.561
346.289
349.611
351.496
352.304
352.6
352.681
352.684
352.67
352.658
352.652
352.65
352.65
352.649
352.648
352.645
352.643
352.642
352.647
352.661
352.68
352.684
352.609
352.314
351.489
349.557
346.171
341.384
334.381
334.871
342.199
346.909
350.033
351.63
352.314
352.604
352.717
352.754
352.76
352.757
352.753
352.751
352.749
352.748
352.748
352.747
352.748
352.749
352.753
352.757
352.753
352.718
352.605
352.309
351.599
349.938
346.739
341.983
334.676
335.157
342.845
347.585
350.479
351.804
352.364
352.615
352.729
352.778
352.796
352.8
352.8
352.799
352.797
352.797
352.796
352.796
352.797
352.798
352.799
352.795
352.778
352.729
352.613
352.353
351.769
350.389
347.424
342.66
335.011
335.383
343.389
348.155
350.825
351.952
352.421
352.634
352.738
352.788
352.81
352.818
352.821
352.821
352.82
352.819
352.819
352.82
352.82
352.82
352.818
352.81
352.787
352.737
352.631
352.41
351.923
350.76
348.037
343.262
335.292
335.558
343.816
348.585
351.068
352.061
352.468
352.654
352.746
352.793
352.815
352.825
352.829
352.83
352.829
352.829
352.829
352.829
352.83
352.829
352.825
352.815
352.792
352.745
352.651
352.46
352.042
351.026
348.512
343.74
335.506
335.693
344.142
348.894
351.232
352.137
352.503
352.67
352.753
352.796
352.818
352.828
352.831
352.832
352.832
352.832
352.832
352.832
352.832
352.831
352.828
352.818
352.796
352.752
352.668
352.498
352.125
351.207
348.853
344.1
335.664
335.792
344.379
349.106
351.34
352.187
352.528
352.682
352.758
352.798
352.818
352.828
352.831
352.832
352.832
352.832
352.832
352.832
352.832
352.831
352.828
352.818
352.798
352.758
352.68
352.524
352.18
351.326
349.084
344.356
335.776
335.858
344.534
349.241
351.406
352.218
352.543
352.69
352.762
352.8
352.818
352.827
352.831
352.832
352.832
352.831
352.831
352.832
352.832
352.831
352.827
352.819
352.8
352.762
352.689
352.541
352.214
351.398
349.228
344.521
335.848
335.892
344.613
349.306
351.438
352.233
352.55
352.693
352.764
352.8
352.818
352.827
352.83
352.831
352.831
352.831
352.831
352.831
352.831
352.83
352.827
352.819
352.8
352.764
352.693
352.549
352.23
351.433
349.298
344.604
335.885
335.895
344.615
349.308
351.439
352.233
352.551
352.693
352.764
352.8
352.818
352.827
352.83
352.831
352.831
352.831
352.831
352.831
352.831
352.83
352.827
352.819
352.801
352.764
352.693
352.55
352.232
351.436
349.302
344.608
335.888
335.865
344.542
349.246
351.409
352.219
352.543
352.689
352.762
352.799
352.818
352.827
352.831
352.832
352.832
352.831
352.831
352.832
352.832
352.831
352.827
352.819
352.8
352.762
352.69
352.543
352.218
351.406
349.24
344.535
335.858
335.803
344.392
349.117
351.345
352.19
352.528
352.682
352.758
352.798
352.818
352.828
352.832
352.833
352.833
352.832
352.832
352.833
352.833
352.832
352.828
352.819
352.798
352.759
352.682
352.528
352.188
351.342
349.111
344.384
335.796
335.71
344.164
348.912
351.241
352.141
352.505
352.67
352.753
352.796
352.817
352.828
352.832
352.833
352.833
352.833
352.833
352.833
352.833
352.832
352.828
352.818
352.796
352.753
352.671
352.505
352.14
351.237
348.903
344.153
335.702
335.586
343.851
348.614
351.084
352.068
352.47
352.654
352.746
352.793
352.816
352.826
352.83
352.83
352.83
352.83
352.83
352.83
352.831
352.83
352.826
352.816
352.793
352.747
352.655
352.47
352.066
351.078
348.601
343.835
335.573
335.425
343.44
348.198
350.85
351.961
352.424
352.635
352.738
352.788
352.81
352.819
352.822
352.822
352.822
352.821
352.821
352.821
352.822
352.822
352.819
352.811
352.788
352.739
352.636
352.424
351.959
350.842
348.18
343.416
335.405
335.214
342.912
347.641
350.51
351.815
352.368
352.616
352.729
352.778
352.797
352.802
352.802
352.801
352.8
352.8
352.799
352.8
352.801
352.802
352.802
352.797
352.779
352.731
352.618
352.37
351.815
350.503
347.621
342.883
335.186
334.938
342.27
346.964
350.065
351.641
352.316
352.602
352.716
352.754
352.762
352.76
352.757
352.755
352.754
352.753
352.753
352.753
352.754
352.756
352.759
352.761
352.755
352.718
352.606
352.321
351.645
350.064
346.953
342.246
334.908
334.632
341.616
346.325
349.629
351.498
352.301
352.596
352.678
352.685
352.673
352.663
352.658
352.657
352.658
352.658
352.657
352.656
352.655
352.655
352.66
352.671
352.685
352.681
352.602
352.311
351.512
349.643
346.333
341.612
334.615
334.467
341.195
346.035
349.525
351.553
352.357
352.551
352.533
352.479
352.445
352.434
352.436
352.442
352.448
352.451
352.45
352.445
352.437
352.429
352.427
352.439
352.476
352.535
352.559
352.373
351.576
349.555
346.067
341.222
334.481
334.742
341.356
346.554
350.177
351.971
352.382
352.228
352.002
351.872
351.841
351.863
351.899
351.932
351.955
351.965
351.964
351.949
351.923
351.887
351.848
351.827
351.864
352.002
352.237
352.4
352
350.214
346.596
341.403
334.79
335.671
342.593
348.575
351.842
352.423
351.737
350.889
350.351
350.177
350.235
350.378
350.518
350.623
350.688
350.718
350.716
350.679
350.607
350.496
350.352
350.212
350.165
350.354
350.903
351.754
352.443
351.867
348.604
342.63
335.734
338.117
346.183
353.471
353.486
351.388
349.163
347.59
346.805
346.646
346.835
347.13
347.397
347.593
347.715
347.772
347.768
347.702
347.57
347.365
347.093
346.805
346.637
346.824
347.628
349.2
351.403
353.473
353.457
346.15
338.107
332.957
365.21
357.275
351.463
346.787
343.737
342.057
341.417
341.435
341.739
342.082
342.361
342.557
342.679
342.736
342.732
342.666
342.534
342.326
342.04
341.702
341.425
341.455
342.143
343.849
346.884
351.495
357.202
365.219
332.859
457.632
368.908
352.838
342.386
337.384
334.843
333.681
333.376
333.497
333.715
333.889
334.005
334.079
334.122
334.142
334.138
334.113
334.061
333.977
333.851
333.675
333.478
333.41
333.798
335.052
337.678
342.754
353.211
369.257
457.915
447.7
369.385
355.851
346.737
340.255
335.233
331.283
328.561
327.238
327.052
327.425
327.896
328.27
328.506
328.621
328.629
328.53
328.312
327.962
327.512
327.135
327.251
328.43
331.005
334.876
339.875
346.346
355.478
368.922
447.335
327.523
358.81
349.552
347.553
344.42
341.178
338.29
336.141
334.991
334.801
335.217
335.827
336.365
336.733
336.917
336.928
336.767
336.427
335.92
335.338
334.921
335.062
336.132
338.216
341.082
344.336
347.509
349.67
358.749
327.853
332.652
340.635
348.37
348.717
347.477
345.435
343.355
341.704
340.756
340.548
340.867
341.408
341.924
342.296
342.49
342.503
342.338
341.999
341.516
341.002
340.685
340.864
341.766
343.375
345.428
347.443
348.662
348.265
340.635
332.783
331.924
338.487