/*--------------------------------*- C++ -*----------------------------------*\
| =========                 |                                                 |
| \\      /  F ield         | OpenFOAM: The Open Source CFD Toolbox           |
|  \\    /   O peration     | Version:  2312                                  |
|   \\  /    A nd           | Website:  www.openfoam.com                      |
|    \\/     M anipulation  |                                                 |
\*---------------------------------------------------------------------------*/
FoamFile
{
    version     2.0;
    format      ascii;
    arch        "LSB;label=32;scalar=64";
    class       volVectorField;
    location    "100";
    object      U;
}
// * * * * * * * * * * * * * * * * * * * * * * * * * * * * * * * * * * * * * //

dimensions      [0 1 -1 0 0 0 0];

internalField   nonuniform List<vector> 
27000
(
(1.07664e-06 4.70215e-05 0.108531)
(-7.00492e-05 0.000115273 0.0768894)
(2.69542e-05 0.000145595 0.0819311)
(6.16662e-05 0.000142876 0.0832782)
(7.96309e-05 0.000158135 0.08501)
(7.75358e-05 0.000176253 0.0864235)
(6.8803e-05 0.000190911 0.0875209)
(5.82067e-05 0.000200709 0.0884276)
(4.76957e-05 0.000206797 0.0892013)
(3.7887e-05 0.000210499 0.0898297)
(2.89451e-05 0.000212884 0.0903249)
(2.07319e-05 0.00021449 0.0907035)
(1.30068e-05 0.000215537 0.0909767)
(5.58687e-06 0.000216097 0.0911539)
(-1.61939e-06 0.000216165 0.0912423)
(-8.57508e-06 0.000215707 0.0912456)
(-1.51706e-05 0.000214715 0.0911646)
(-2.12584e-05 0.000213175 0.0909967)
(-2.66554e-05 0.000211098 0.0907365)
(-3.11518e-05 0.000208496 0.0903759)
(-3.44709e-05 0.000205452 0.089904)
(-3.633e-05 0.000202015 0.0893014)
(-3.63873e-05 0.000197885 0.088551)
(-3.45803e-05 0.000192586 0.0876618)
(-3.05485e-05 0.000185193 0.0865723)
(-2.12188e-05 0.000176845 0.0851495)
(3.38991e-06 0.00017208 0.0833751)
(3.36725e-05 0.000181934 0.0819299)
(0.000135628 0.000165343 0.0767259)
(2.44382e-05 7.13117e-05 0.108179)
(0.000173734 -4.18018e-05 0.0630156)
(0.000123008 -9.31915e-05 0.0849423)
(0.000136912 7.23294e-05 0.0928124)
(0.000111915 0.000142571 0.0950769)
(0.000101907 0.000194731 0.0959629)
(9.55045e-05 0.000234404 0.0965762)
(8.85478e-05 0.000262566 0.0970864)
(8.12156e-05 0.000280774 0.0975311)
(7.3042e-05 0.000291664 0.097914)
(6.35278e-05 0.000297987 0.0982283)
(5.26724e-05 0.000301783 0.0984736)
(4.07927e-05 0.0003042 0.0986567)
(2.82485e-05 0.000305756 0.0987862)
(1.53166e-05 0.000306596 0.0988692)
(2.26206e-06 0.000306684 0.0989111)
(-1.06871e-05 0.000305994 0.0989151)
(-2.33084e-05 0.000304451 0.0988821)
(-3.53501e-05 0.000302031 0.0988105)
(-4.65538e-05 0.000298662 0.0986964)
(-5.66475e-05 0.000294271 0.0985334)
(-6.53787e-05 0.000288623 0.098312)
(-7.25578e-05 0.000281214 0.0980211)
(-7.83447e-05 0.000270978 0.0976533)
(-8.31225e-05 0.000256364 0.0972034)
(-8.7094e-05 0.000235712 0.0966498)
(-9.00076e-05 0.000207482 0.0959338)
(-9.62209e-05 0.00016885 0.0948728)
(-0.000121214 0.000109613 0.0923899)
(-0.000123428 -7.01342e-05 0.0844335)
(-0.000230232 -8.37098e-05 0.0629064)
(6.17292e-06 0.000236034 0.080623)
(7.92909e-05 0.000166432 0.0907745)
(0.000151044 0.00017433 0.0979317)
(0.000151262 0.000201425 0.099352)
(0.000135062 0.000236802 0.0995102)
(0.000120415 0.00026866 0.0994872)
(0.00010844 0.000292666 0.0995006)
(9.79967e-05 0.000308569 0.0995604)
(8.76927e-05 0.000318084 0.099645)
(7.64651e-05 0.000323315 0.099734)
(6.39479e-05 0.000326037 0.0998135)
(5.02374e-05 0.000327413 0.0998774)
(3.56314e-05 0.000328056 0.0999244)
(2.04712e-05 0.000328184 0.0999554)
(5.03034e-06 0.000327878 0.099972)
(-1.04474e-05 0.000327062 0.0999755)
(-2.57351e-05 0.000325723 0.0999663)
(-4.06214e-05 0.000323781 0.0999442)
(-5.49039e-05 0.000321194 0.0999085)
(-6.84001e-05 0.000317818 0.0998577)
(-8.0978e-05 0.000313409 0.0997909)
(-9.26983e-05 0.00030737 0.0997095)
(-0.000103915 0.000298717 0.0996198)
(-0.000115388 0.000286122 0.0995324)
(-0.000127733 0.000268388 0.0994575)
(-0.000141291 0.000245319 0.0993786)
(-0.000155654 0.000218715 0.0990903)
(-0.000156633 0.000192937 0.0975707)
(-9.60433e-05 0.00016816 0.0905181)
(-4.96761e-05 0.000189395 0.0806653)
(6.52386e-05 0.000163096 0.0838151)
(0.000113099 0.000168975 0.0943108)
(0.000169003 0.0001959 0.0988793)
(0.000169104 0.000210029 0.0999572)
(0.000155144 0.000232436 0.100128)
(0.000138415 0.000255883 0.100082)
(0.000122976 0.000275951 0.100021)
(0.000109304 0.000290752 0.0999912)
(9.64419e-05 0.000300403 0.0999928)
(8.33444e-05 0.000306099 0.100013)
(6.94447e-05 0.00030918 0.10004)
(5.46561e-05 0.000310701 0.100066)
(3.91154e-05 0.000311333 0.100087)
(2.30366e-05 0.000311417 0.100102)
(6.6473e-06 0.000311051 0.100111)
(-9.84837e-06 0.000310269 0.100114)
(-2.62624e-05 0.000309021 0.100111)
(-4.24395e-05 0.000307265 0.100102)
(-5.82262e-05 0.000304913 0.100088)
(-7.35115e-05 0.000301821 0.100069)
(-8.82611e-05 0.000297667 0.100046)
(-0.000102569 0.000291911 0.100023)
(-0.000116828 0.000283768 0.100007)
(-0.000131599 0.000272495 0.100005)
(-0.000147224 0.00025793 0.100016)
(-0.000162723 0.000241074 0.0999989)
(-0.000174499 0.000224075 0.0997759)
(-0.00017432 0.000208941 0.0986983)
(-0.000127783 0.000163944 0.0942367)
(-0.000102969 0.000113717 0.083886)
(9.3205e-05 0.000170298 0.0862567)
(0.000155112 0.000176226 0.0959775)
(0.000200741 0.000195307 0.0992372)
(0.00019315 0.000205814 0.0999996)
(0.000175828 0.00022133 0.100185)
(0.000156353 0.000238732 0.10019)
(0.000137793 0.00025496 0.100147)
(0.000121024 0.000267979 0.100108)
(0.000105483 0.000277139 0.100087)
(9.02655e-05 0.000282891 0.100082)
(7.47629e-05 0.000286158 0.100087)
(5.87303e-05 0.000287832 0.100096)
(4.2171e-05 0.000288547 0.100105)
(2.51906e-05 0.000288665 0.100112)
(7.93759e-06 0.000288344 0.100117)
(-9.44147e-06 0.000287623 0.100119)
(-2.68233e-05 0.00028649 0.100118)
(-4.40789e-05 0.000284899 0.100115)
(-6.11205e-05 0.000282771 0.10011)
(-7.78927e-05 0.000279936 0.100104)
(-9.43864e-05 0.000276106 0.100098)
(-0.000110742 0.000270808 0.100097)
(-0.000127291 0.000263513 0.100103)
(-0.000144509 0.000253934 0.100117)
(-0.00016242 0.000242418 0.10013)
(-0.00017992 0.000230059 0.100098)
(-0.000194408 0.00021803 0.0999068)
(-0.000200471 0.000205476 0.0991793)
(-0.00016153 0.000170366 0.0960065)
(-0.000117545 0.000128378 0.0863537)
(0.000122105 0.000149473 0.0880788)
(0.000188426 0.000173824 0.0969899)
(0.00022564 0.000190154 0.0994303)
(0.000214007 0.000196902 0.0999863)
(0.000194214 0.000207497 0.100147)
(0.000172504 0.000220166 0.100177)
(0.000151546 0.000232875 0.10016)
(0.000132269 0.000243805 0.100131)
(0.00011439 0.000251981 0.100109)
(9.71969e-05 0.000257403 0.100096)
(8.00941e-05 0.000260637 0.100092)
(6.27726e-05 0.000262378 0.100092)
(4.51343e-05 0.000263172 0.100095)
(2.72054e-05 0.000263358 0.100097)
(9.06122e-06 0.000263108 0.100099)
(-9.20677e-06 0.000262475 0.1001)
(-2.7507e-05 0.000261461 0.100101)
(-4.57734e-05 0.000260032 0.100101)
(-6.3947e-05 0.000258103 0.1001)
(-8.19976e-05 0.000255536 0.1001)
(-9.99699e-05 0.000252064 0.100103)
(-0.000118007 0.00024734 0.100109)
(-0.000136416 0.00024104 0.10012)
(-0.00015552 0.00023316 0.100134)
(-0.000175273 0.000224258 0.100138)
(-0.000194625 0.000215224 0.100102)
(-0.000211348 0.000206638 0.0999549)
(-0.000220871 0.000197476 0.099438)
(-0.000187644 0.000168331 0.0970636)
(-0.000134847 0.00011745 0.0881772)
(0.000142827 0.000128237 0.0894885)
(0.000211455 0.000162368 0.0977001)
(0.000241808 0.00017912 0.0995834)
(0.000228534 0.000184568 0.0999901)
(0.000207939 0.000192009 0.100112)
(0.000185289 0.000201147 0.100144)
(0.000162999 0.000210822 0.10014)
(0.000142073 0.000219604 0.100122)
(0.000122454 0.000226522 0.100104)
(0.000103638 0.000231331 0.100091)
(8.51277e-05 0.00023433 0.100084)
(6.66016e-05 0.000236012 0.100081)
(4.79162e-05 0.000236819 0.10008)
(2.90459e-05 0.00023705 0.10008)
(1.00232e-05 0.000236861 0.100081)
(-9.10425e-06 0.00023632 0.100081)
(-2.82873e-05 0.000235429 0.100082)
(-4.74795e-05 0.00023416 0.100083)
(-6.66513e-05 0.000232448 0.100085)
(-8.58085e-05 0.00023016 0.100088)
(-0.000105 0.000227098 0.100093)
(-0.000124372 0.000223017 0.100101)
(-0.00014417 0.000217763 0.100112)
(-0.0001646 0.000211479 0.100123)
(-0.000185493 0.000204685 0.100125)
(-0.000205877 0.000198036 0.100097)
(-0.000223759 0.000191595 0.0999918)
(-0.000235003 0.000183905 0.0996165)
(-0.000206864 0.000158156 0.097777)
(-0.000147536 0.000107112 0.0895711)
(0.000157016 0.000108674 0.0905818)
(0.000226462 0.000147624 0.0982192)
(0.000251611 0.000164134 0.0997161)
(0.000237621 0.000169085 0.100013)
(0.000217013 0.000174663 0.100097)
(0.000194272 0.000181386 0.100119)
(0.000171524 0.000188679 0.100117)
(0.000149741 0.000195541 0.100105)
(0.00012902 0.000201153 0.100092)
(0.000109048 0.000205201 0.100081)
(8.94382e-05 0.000207817 0.100074)
(6.991e-05 0.000209329 0.100069)
(5.03178e-05 0.000210078 0.100067)
(3.06094e-05 0.000210308 0.100067)
(1.07886e-05 0.000210163 0.100066)
(-9.11634e-06 0.000209698 0.100067)
(-2.90777e-05 0.000208928 0.100068)
(-4.90708e-05 0.000207828 0.100069)
(-6.9085e-05 0.000206339 0.100071)
(-8.91286e-05 0.000204359 0.100075)
(-0.000109262 0.000201743 0.100081)
(-0.000129611 0.000198333 0.100089)
(-0.00015034 0.000194078 0.100099)
(-0.000171554 0.000189147 0.100109)
(-0.000193031 0.000183959 0.100113)
(-0.000213884 0.000178883 0.100098)
(-0.00023238 0.000173795 0.100028)
(-0.000244813 0.000167163 0.0997518)
(-0.000220879 0.000145076 0.0982807)
(-0.000157355 9.65873e-05 0.0906415)
(0.000167074 9.13457e-05 0.0914365)
(0.00023687 0.000130836 0.0986003)
(0.000257918 0.000146364 0.0998258)
(0.000243296 0.000150915 0.100044)
(0.000222742 0.000155323 0.100096)
(0.000200176 0.000160404 0.100106)
(0.000177395 0.000165932 0.100101)
(0.000155262 0.000171225 0.10009)
(0.00013393 0.00017566 0.100079)
(0.00011321 0.00017895 0.100071)
(9.28219e-05 0.00018113 0.100064)
(7.25378e-05 0.000182422 0.100061)
(5.22234e-05 0.000183071 0.100058)
(3.18277e-05 0.000183276 0.100057)
(1.13452e-05 0.000183152 0.100057)
(-9.21162e-06 0.000182756 0.100057)
(-2.98197e-05 0.000182098 0.100058)
(-5.04653e-05 0.000181158 0.100059)
(-7.11397e-05 0.000179892 0.100061)
(-9.18607e-05 0.00017822 0.100065)
(-0.00011268 0.000176037 0.10007)
(-0.00013369 0.000173256 0.100078)
(-0.000155008 0.000169864 0.100088)
(-0.000176667 0.000166016 0.100098)
(-0.000198452 0.000162 0.100106)
(-0.000219617 0.00015806 0.100103)
(-0.000238689 0.000153952 0.10006)
(-0.000252262 0.00014841 0.0998543)
(-0.000231934 0.000129876 0.0986425)
(-0.000165688 8.56903e-05 0.091475)
(0.000174431 7.57152e-05 0.0920988)
(0.000244737 0.000112555 0.0988788)
(0.000262532 0.000126471 0.099911)
(0.000247191 0.000130585 0.100074)
(0.000226516 0.000134156 0.100102)
(0.000204055 0.000138068 0.1001)
(0.000181355 0.000142284 0.100091)
(0.000159096 0.000146341 0.10008)
(0.000137434 0.000149792 0.10007)
(0.000116246 0.000152399 0.100063)
(9.53267e-05 0.000154166 0.100058)
(7.44953e-05 0.000155229 0.100055)
(5.36407e-05 0.000155771 0.100053)
(3.27143e-05 0.000155939 0.100052)
(1.17087e-05 0.000155831 0.100052)
(-9.36064e-06 0.000155493 0.100052)
(-3.04795e-05 0.000154937 0.100052)
(-5.16286e-05 0.000154148 0.100053)
(-7.28067e-05 0.00015309 0.100055)
(-9.40271e-05 0.000151703 0.100058)
(-0.00011533 0.000149919 0.100063)
(-0.000136795 0.000147683 0.10007)
(-0.000158494 0.000145009 0.100079)
(-0.000180446 0.000142013 0.100091)
(-0.000202461 0.000138903 0.100103)
(-0.000223974 0.00013583 0.100109)
(-0.000243688 0.000132578 0.100087)
(-0.000258391 0.000128076 0.0999304)
(-0.00024103 0.000112886 0.0989049)
(-0.000172726 7.4143e-05 0.092122)
(0.000179991 6.11233e-05 0.0926007)
(0.000251005 9.31489e-05 0.0990792)
(0.000266231 0.000105011 0.0999733)
(0.000250142 0.000108609 0.100097)
(0.000229213 0.000111496 0.100109)
(0.000206762 0.000114525 0.100099)
(0.000184106 0.000117726 0.100085)
(0.000161784 0.0001208 0.100073)
(0.000139917 0.000123435 0.100064)
(0.000118419 0.000125457 0.100058)
(9.71287e-05 0.000126847 0.100054)
(7.59025e-05 0.000127697 0.100051)
(5.46481e-05 0.000128133 0.10005)
(3.33233e-05 0.000128266 0.10005)
(1.19242e-05 0.00012817 0.10005)
(-9.53802e-06 0.000127887 0.10005)
(-3.10412e-05 0.000127425 0.10005)
(-5.25733e-05 0.000126776 0.10005)
(-7.41255e-05 0.000125909 0.100052)
(-9.57105e-05 0.000124786 0.100054)
(-0.000117368 0.000123358 0.100058)
(-0.000139154 0.000121598 0.100064)
(-0.000161135 0.000119524 0.100073)
(-0.000183318 0.000117227 0.100086)
(-0.000205568 0.000114854 0.100101)
(-0.000227433 0.000112502 0.100114)
(-0.000247774 0.00011001 0.100106)
(-0.000263486 0.000106481 0.0999853)
(-0.000248506 9.43997e-05 0.0990943)
(-0.000178526 6.19039e-05 0.092614)
(0.000184196 4.69967e-05 0.0929707)
(0.000255988 7.28803e-05 0.09922)
(0.000269252 8.2426e-05 0.100016)
(0.000252485 8.5428e-05 0.100114)
(0.000231264 8.77158e-05 0.100114)
(0.000208749 9.00146e-05 0.100098)
(0.000186092 9.23903e-05 0.100082)
(0.000163708 9.46576e-05 0.100069)
(0.000141692 9.66078e-05 0.10006)
(0.000119967 9.81183e-05 0.100055)
(9.84061e-05 9.91701e-05 0.100051)
(7.68908e-05 9.98207e-05 0.10005)
(5.53414e-05 0.000100154 0.100049)
(3.37238e-05 0.000100251 0.100049)
(1.20327e-05 0.000100167 0.100049)
(-9.71651e-06 9.9935e-05 0.100049)
(-3.15061e-05 9.9564e-05 0.100049)
(-5.33171e-05 9.90454e-05 0.100049)
(-7.51449e-05 9.83632e-05 0.10005)
(-9.7001e-05 9.74852e-05 0.100051)
(-0.000118916 9.63873e-05 0.100055)
(-0.000140946 9.50527e-05 0.10006)
(-0.000163144 9.35032e-05 0.100069)
(-0.000185528 9.18075e-05 0.100083)
(-0.000207995 9.00651e-05 0.1001)
(-0.000230185 8.83483e-05 0.100118)
(-0.000251068 8.65198e-05 0.100119)
(-0.00026761 8.3883e-05 0.100023)
(-0.000254446 7.47006e-05 0.0992283)
(-0.000183128 4.90191e-05 0.092978)
(0.000187266 3.29784e-05 0.0932306)
(0.000259728 5.19581e-05 0.0993149)
(0.00027158 5.90398e-05 0.100045)
(0.000254279 6.13796e-05 0.100125)
(0.000232798 6.31063e-05 0.100118)
(0.000210201 6.47733e-05 0.100098)
(0.000187514 6.6451e-05 0.10008)
(0.000165072 6.80324e-05 0.100067)
(0.000142936 6.93905e-05 0.100058)
(0.000121043 7.04444e-05 0.100053)
(9.92837e-05 7.11836e-05 0.10005)
(7.75567e-05 7.16398e-05 0.100049)
(5.57956e-05 7.18709e-05 0.100049)
(3.39683e-05 7.1929e-05 0.100049)
(1.20719e-05 7.18552e-05 0.100049)
(-9.88105e-06 7.16725e-05 0.100049)
(-3.18701e-05 7.13889e-05 0.100049)
(-5.38795e-05 7.10017e-05 0.100049)
(-7.59029e-05 7.04969e-05 0.100049)
(-9.79503e-05 6.98606e-05 0.10005)
(-0.000120055 6.90747e-05 0.100053)
(-0.000142264 6.8136e-05 0.100058)
(-0.000164631 6.70619e-05 0.100067)
(-0.000187176 6.59001e-05 0.100081)
(-0.000209825 6.47186e-05 0.100099)
(-0.000232277 6.35575e-05 0.10012)
(-0.000253578 6.23223e-05 0.100128)
(-0.000270739 6.05021e-05 0.100049)
(-0.000258891 5.40754e-05 0.0993193)
(-0.000186584 3.55922e-05 0.0932345)
(0.000189252 1.89434e-05 0.0933959)
(0.000262189 3.05841e-05 0.0993734)
(0.000273136 3.51195e-05 0.100062)
(0.000255477 3.67451e-05 0.100131)
(0.000233814 3.79286e-05 0.100119)
(0.000211151 3.9023e-05 0.100097)
(0.000188435 4.00843e-05 0.100078)
(0.000165946 4.10616e-05 0.100065)
(0.000143728 4.18878e-05 0.100057)
(0.000121719 4.2524e-05 0.100052)
(9.98238e-05 4.29629e-05 0.10005)
(7.79559e-05 4.32279e-05 0.100049)
(5.60548e-05 4.3351e-05 0.100049)
(3.40917e-05 4.33662e-05 0.100049)
(1.20631e-05 4.32983e-05 0.100049)
(-1.00183e-05 4.31632e-05 0.100049)
(-3.21343e-05 4.29674e-05 0.100049)
(-5.42688e-05 4.271e-05 0.100049)
(-7.64163e-05 4.23863e-05 0.100049)
(-9.85887e-05 4.19881e-05 0.10005)
(-0.000120816 4.15094e-05 0.100052)
(-0.000143146 4.095e-05 0.100057)
(-0.00016563 4.03216e-05 0.100065)
(-0.000188292 3.96519e-05 0.100079)
(-0.000211072 3.89777e-05 0.100098)
(-0.000233707 3.83207e-05 0.100121)
(-0.000255289 3.76203e-05 0.100133)
(-0.000272862 3.65714e-05 0.100064)
(-0.000261869 3.28029e-05 0.0993758)
(-0.000188911 2.17652e-05 0.0933979)
(0.000190165 4.87304e-06 0.0934764)
(0.000263341 8.94929e-06 0.0994015)
(0.000273856 1.0891e-05 0.10007)
(0.000256027 1.17712e-05 0.100134)
(0.000234279 1.2417e-05 0.10012)
(0.000211586 1.29708e-05 0.100097)
(0.000188858 1.3463e-05 0.100078)
(0.000166345 1.38828e-05 0.100064)
(0.000144084 1.4215e-05 0.100056)
(0.000122015 1.44528e-05 0.100052)
(0.000100051 1.46009e-05 0.10005)
(7.81107e-05 1.46721e-05 0.100049)
(5.61394e-05 1.46832e-05 0.100049)
(3.41099e-05 1.46497e-05 0.100049)
(1.20186e-05 1.45842e-05 0.100049)
(-1.01232e-05 1.44946e-05 0.100049)
(-3.22973e-05 1.43859e-05 0.100049)
(-5.4489e-05 1.426e-05 0.100049)
(-7.6694e-05 1.41183e-05 0.100049)
(-9.8924e-05 1.3961e-05 0.10005)
(-0.000121211 1.37889e-05 0.100052)
(-0.000143603 1.36026e-05 0.100056)
(-0.000166151 1.34059e-05 0.100065)
(-0.00018888 1.3205e-05 0.100078)
(-0.000211737 1.30084e-05 0.100098)
(-0.000234472 1.282e-05 0.100121)
(-0.000256199 1.26194e-05 0.100135)
(-0.000273977 1.23102e-05 0.100071)
(-0.000263401 1.11438e-05 0.0994028)
(-0.000190114 7.67521e-06 0.0934774)
(0.000190018 -9.19596e-06 0.0934767)
(0.00026318 -1.27597e-05 0.0994019)
(0.000273709 -1.34326e-05 0.10007)
(0.000255896 -1.33138e-05 0.100134)
(0.000234162 -1.32072e-05 0.10012)
(0.000211483 -1.31842e-05 0.100097)
(0.000188766 -1.32461e-05 0.100078)
(0.000166261 -1.33663e-05 0.100064)
(0.000144003 -1.3515e-05 0.100056)
(0.000121934 -1.36671e-05 0.100052)
(9.9968e-05 -1.38079e-05 0.10005)
(7.80267e-05 -1.39313e-05 0.100049)
(5.60557e-05 -1.40355e-05 0.100049)
(3.40286e-05 -1.41209e-05 0.100049)
(1.19417e-05 -1.41874e-05 0.100049)
(-1.01931e-05 -1.42333e-05 0.100049)
(-3.2359e-05 -1.42562e-05 0.100049)
(-5.45416e-05 -1.42502e-05 0.100049)
(-7.6737e-05 -1.42086e-05 0.100049)
(-9.89596e-05 -1.41221e-05 0.10005)
(-0.000121243 -1.39848e-05 0.100052)
(-0.000143637 -1.37947e-05 0.100056)
(-0.000166196 -1.35596e-05 0.100065)
(-0.000188942 -1.32957e-05 0.100078)
(-0.000211821 -1.30246e-05 0.100098)
(-0.000234575 -1.27593e-05 0.100121)
(-0.000256313 -1.24787e-05 0.100135)
(-0.00027409 -1.20672e-05 0.100071)
(-0.000263497 -1.06634e-05 0.0994028)
(-0.000190185 -6.53806e-06 0.0934773)
(0.000188818 -2.32081e-05 0.0933967)
(0.000261702 -3.43487e-05 0.0993746)
(0.000272683 -3.76394e-05 0.100063)
(0.000255071 -3.82847e-05 0.100132)
(0.000233452 -3.8726e-05 0.10012)
(0.000210832 -3.92492e-05 0.100098)
(0.000188152 -3.98779e-05 0.100079)
(0.000165687 -4.05513e-05 0.100065)
(0.000143479 -4.11891e-05 0.100057)
(0.000121472 -4.17364e-05 0.100052)
(9.95736e-05 -4.21677e-05 0.10005)
(7.77025e-05 -4.24859e-05 0.100049)
(5.58026e-05 -4.27056e-05 0.100049)
(3.38469e-05 -4.28438e-05 0.100049)
(1.18328e-05 -4.29122e-05 0.100049)
(-1.02284e-05 -4.29167e-05 0.100049)
(-3.23192e-05 -4.2855e-05 0.100049)
(-5.44255e-05 -4.2719e-05 0.100049)
(-7.65451e-05 -4.24932e-05 0.100049)
(-9.8694e-05 -4.21607e-05 0.10005)
(-0.00012091 -4.17063e-05 0.100052)
(-0.000143249 -4.1129e-05 0.100057)
(-0.000165766 -4.04468e-05 0.100065)
(-0.000188484 -3.97032e-05 0.100079)
(-0.000211332 -3.89526e-05 0.100098)
(-0.000234028 -3.82298e-05 0.100121)
(-0.000255644 -3.74719e-05 0.100133)
(-0.000273212 -3.63517e-05 0.100064)
(-0.000262161 -3.2385e-05 0.0993759)
(-0.000189121 -2.073e-05 0.0933977)
(0.000186553 -3.71143e-05 0.0932321)
(0.000258898 -5.56131e-05 0.099317)
(0.000270784 -6.15107e-05 0.100046)
(0.000253558 -6.29114e-05 0.100126)
(0.000232154 -6.39253e-05 0.100118)
(0.000209637 -6.50297e-05 0.100098)
(0.000187019 -6.62728e-05 0.10008)
(0.000164624 -6.75387e-05 0.100067)
(0.000142513 -6.86982e-05 0.100058)
(0.000120626 -6.96568e-05 0.100053)
(9.8863e-05 -7.03858e-05 0.10005)
(7.71326e-05 -7.08985e-05 0.100049)
(5.53745e-05 -7.12319e-05 0.100049)
(3.3561e-05 -7.1421e-05 0.100049)
(1.16889e-05 -7.14917e-05 0.100049)
(-1.0229e-05 -7.14556e-05 0.100049)
(-3.21753e-05 -7.1312e-05 0.100049)
(-5.41363e-05 -7.10473e-05 0.100049)
(-7.61115e-05 -7.06386e-05 0.100049)
(-9.81201e-05 -7.00552e-05 0.10005)
(-0.000120206 -6.92735e-05 0.100053)
(-0.000142432 -6.82866e-05 0.100058)
(-0.00016486 -6.71267e-05 0.100067)
(-0.000187507 -6.58659e-05 0.10008)
(-0.000210281 -6.46027e-05 0.100099)
(-0.000232846 -6.33981e-05 0.10012)
(-0.000254209 -6.21528e-05 0.100128)
(-0.000271358 -6.03293e-05 0.100049)
(-0.000259392 -5.37832e-05 0.0993197)
(-0.000186919 -3.47601e-05 0.0932342)
(0.000183201 -5.08962e-05 0.0929734)
(0.000254772 -7.63345e-05 0.0992236)
(0.000268053 -8.48115e-05 0.100019)
(0.000251389 -8.69578e-05 0.100116)
(0.000230292 -8.85791e-05 0.100116)
(0.00020791 -9.03344e-05 0.100099)
(0.000185366 -9.2266e-05 0.100082)
(0.000163063 -9.42001e-05 0.100069)
(0.000141089 -9.59324e-05 0.10006)
(0.00011938 -9.73355e-05 0.100055)
(9.7818e-05 -9.8374e-05 0.100051)
(7.63002e-05 -9.90839e-05 0.10005)
(5.47574e-05 -9.95284e-05 0.100049)
(3.31595e-05 -9.97672e-05 0.100049)
(1.15045e-05 -9.98396e-05 0.100049)
(-1.01949e-05 -9.97644e-05 0.100049)
(-3.1921e-05 -9.95407e-05 0.100049)
(-5.3662e-05 -9.91497e-05 0.100049)
(-7.54186e-05 -9.85562e-05 0.10005)
(-9.72156e-05 -9.77165e-05 0.100051)
(-0.000119105 -9.6588e-05 0.100055)
(-0.000141161 -9.51585e-05 0.10006)
(-0.000163455 -9.34689e-05 0.10007)
(-0.000185999 -9.163e-05 0.100083)
(-0.000208665 -8.97928e-05 0.1001)
(-0.000231038 -8.80604e-05 0.100118)
(-0.000252028 -8.62997e-05 0.100119)
(-0.000268553 -8.37694e-05 0.100024)
(-0.000255194 -7.4604e-05 0.0992289)
(-0.000183584 -4.85108e-05 0.0929775)
(0.000178704 -6.45983e-05 0.0926054)
(0.000249344 -9.62771e-05 0.0990853)
(0.000264547 -0.000107279 0.099978)
(0.000248609 -0.000110159 0.100101)
(0.00022787 -0.000112449 0.100111)
(0.000205624 -0.000114956 0.1001)
(0.000183147 -0.000117695 0.100086)
(0.000160947 -0.000120403 0.100073)
(0.000139149 -0.000122791 0.100064)
(0.000117675 -0.000124686 0.100058)
(9.63892e-05 -0.000126056 0.100054)
(7.51624e-05 -0.000126971 0.100051)
(5.39169e-05 -0.000127528 0.10005)
(3.26195e-05 -0.000127817 0.10005)
(1.12675e-05 -0.000127893 0.100049)
(-1.01263e-05 -0.000127781 0.100049)
(-3.15453e-05 -0.000127478 0.10005)
(-5.29778e-05 -0.000126961 0.10005)
(-7.44304e-05 -0.00012618 0.100051)
(-9.59326e-05 -0.000125071 0.100054)
(-0.000117548 -0.000123569 0.100058)
(-0.000139368 -0.000121646 0.100064)
(-0.00016148 -0.000119351 0.100074)
(-0.000183894 -0.000116838 0.100086)
(-0.000206436 -0.000114333 0.100101)
(-0.000228585 -0.000111994 0.100114)
(-0.000249108 -0.000109665 0.100106)
(-0.000264821 -0.000106408 0.0999853)
(-0.000249563 -9.45563e-05 0.0990947)
(-0.000179107 -6.18941e-05 0.0926126)
(0.000172908 -7.84225e-05 0.0921066)
(0.000242581 -0.000115194 0.0988887)
(0.000260298 -0.000128613 0.0999184)
(0.000245175 -0.000132206 0.100079)
(0.00022479 -0.000135274 0.100105)
(0.000202631 -0.000138673 0.100102)
(0.000180188 -0.000142395 0.100091)
(0.000158103 -0.000146032 0.10008)
(0.000136534 -0.00014919 0.10007)
(0.000115383 -0.000151643 0.100063)
(9.44681e-05 -0.000153381 0.100058)
(7.36361e-05 -0.000154513 0.100055)
(5.27934e-05 -0.000155191 0.100053)
(3.19007e-05 -0.000155535 0.100052)
(1.09562e-05 -0.000155619 0.100052)
(-1.00264e-05 -0.000155473 0.100052)
(-3.1031e-05 -0.000155094 0.100052)
(-5.20494e-05 -0.000154448 0.100053)
(-7.30877e-05 -0.000153473 0.100055)
(-9.41858e-05 -0.000152077 0.100058)
(-0.000115422 -0.000150164 0.100063)
(-0.000136912 -0.000147676 0.10007)
(-0.000158772 -0.000144667 0.10008)
(-0.000181024 -0.000141343 0.100091)
(-0.000203446 -0.000138023 0.100103)
(-0.000225373 -0.000134962 0.100109)
(-0.000245387 -0.000131972 0.100086)
(-0.000260151 -0.000127947 0.09993)
(-0.000242445 -0.000113315 0.0989044)
(-0.000173402 -7.4889e-05 0.0921189)
(0.000165489 -9.27457e-05 0.0914492)
(0.000234261 -0.000132789 0.0986155)
(0.000255124 -0.000148405 0.0998363)
(0.000240822 -0.000152708 0.10005)
(0.000220691 -0.000156702 0.100099)
(0.000198547 -0.000161261 0.100107)
(0.000176106 -0.000166224 0.1001)
(0.000154193 -0.00017102 0.10009)
(0.000132973 -0.000175099 0.100079)
(0.000112287 -0.000178201 0.100071)
(9.18989e-05 -0.000180342 0.100065)
(7.16094e-05 -0.000181713 0.100061)
(5.13064e-05 -0.000182518 0.100059)
(3.09522e-05 -0.000182923 0.100058)
(1.05429e-05 -0.000183021 0.100057)
(-9.90302e-06 -0.000182845 0.100057)
(-3.03664e-05 -0.000182391 0.100058)
(-5.08357e-05 -0.000181617 0.100059)
(-7.13209e-05 -0.00018044 0.100061)
(-9.18641e-05 -0.00017874 0.100065)
(-0.000112562 -0.000176372 0.10007)
(-0.000133569 -0.000173236 0.100079)
(-0.000155048 -0.000169366 0.100089)
(-0.00017706 -0.000165026 0.1001)
(-0.000199356 -0.000160665 0.100107)
(-0.000221096 -0.000156661 0.100103)
(-0.000240634 -0.000152871 0.100059)
(-0.000254392 -0.00014801 0.0998531)
(-0.000233673 -0.000130488 0.0986403)
(-0.000166321 -8.75118e-05 0.0914693)
(0.000155799 -0.000108023 0.090601)
(0.000223628 -0.000148689 0.0982405)
(0.000248404 -0.000166147 0.0997288)
(0.000234846 -0.000171195 0.100019)
(0.000214817 -0.000176421 0.100098)
(0.000192619 -0.000182559 0.100118)
(0.000170281 -0.000189172 0.100115)
(0.000148739 -0.000195425 0.100104)
(0.000128121 -0.000200606 0.100091)
(0.000108163 -0.000204432 0.100081)
(8.85311e-05 -0.000207005 0.100074)
(6.89834e-05 -0.000208614 0.10007)
(4.9399e-05 -0.000209547 0.100068)
(2.97332e-05 -0.000210015 0.100067)
(1.00012e-05 -0.000210126 0.100067)
(-9.77022e-06 -0.000209924 0.100067)
(-2.95529e-05 -0.000209399 0.100067)
(-4.93225e-05 -0.000208497 0.100068)
(-6.90816e-05 -0.000207124 0.100071)
(-8.88739e-05 -0.000205111 0.100075)
(-0.000108808 -0.000202265 0.100081)
(-0.000129078 -0.000198401 0.10009)
(-0.000149926 -0.000193509 0.100101)
(-0.000171501 -0.000187882 0.100112)
(-0.000193567 -0.000182119 0.100115)
(-0.000215147 -0.000176815 0.100098)
(-0.000234322 -0.000171955 0.100027)
(-0.000247124 -0.000166151 0.0997493)
(-0.000222799 -0.000145623 0.0982755)
(-0.000157643 -9.97659e-05 0.0906326)
(0.000142784 -0.000124652 0.0895148)
(0.000208966 -0.000162363 0.0977258)
(0.000238592 -0.000181251 0.0995951)
(0.000225824 -0.000187158 0.0999916)
(0.00020594 -0.000194248 0.100108)
(0.00018391 -0.000202646 0.100139)
(0.000162044 -0.000211469 0.100136)
(0.000141329 -0.000219505 0.10012)
(0.000121758 -0.000225917 0.100104)
(0.000102905 -0.000230478 0.100092)
(8.43322e-05 -0.000233455 0.100085)
(6.57637e-05 -0.000235265 0.100082)
(4.70736e-05 -0.000236304 0.100081)
(2.82506e-05 -0.000236814 0.100081)
(9.32412e-06 -0.000236935 0.100081)
(-9.6549e-06 -0.000236707 0.100081)
(-2.86249e-05 -0.000236114 0.100082)
(-4.75516e-05 -0.000235105 0.100082)
(-6.64083e-05 -0.000233548 0.100084)
(-8.52234e-05 -0.000231259 0.100087)
(-0.000104111 -0.00022795 0.100093)
(-0.000123294 -0.000223339 0.100102)
(-0.000143112 -0.000217303 0.100115)
(-0.000163837 -0.000210092 0.100127)
(-0.000185341 -0.000202453 0.100129)
(-0.00020658 -0.000195229 0.1001)
(-0.000225357 -0.000188773 0.0999918)
(-0.000237244 -0.000181814 0.0996126)
(-0.000208708 -0.000158212 0.0977673)
(-0.000147035 -0.000111793 0.0895585)
(0.000124416 -0.000142206 0.0881095)
(0.000187284 -0.000172721 0.0970136)
(0.00022314 -0.000192594 0.0994335)
(0.000211936 -0.000200103 0.0999778)
(0.000192861 -0.000210207 0.100135)
(0.000171744 -0.000221886 0.100167)
(0.00015112 -0.000233516 0.100153)
(0.00013194 -0.000243563 0.100129)
(0.000114004 -0.000251181 0.100109)
(9.66931e-05 -0.000256373 0.100098)
(7.94831e-05 -0.00025963 0.100094)
(6.20958e-05 -0.000261567 0.100094)
(4.44504e-05 -0.000262649 0.100096)
(2.65682e-05 -0.000263179 0.100098)
(8.52364e-06 -0.000263294 0.1001)
(-9.58179e-06 -0.000263035 0.1001)
(-2.76688e-05 -0.00026239 0.1001)
(-4.56424e-05 -0.000261285 0.100099)
(-6.34541e-05 -0.000259597 0.100098)
(-8.10986e-05 -0.000257084 0.100098)
(-9.8649e-05 -0.000253401 0.100101)
(-0.000116354 -0.000248131 0.100109)
(-0.000134615 -0.000240944 0.100123)
(-0.000153893 -0.00023196 0.100139)
(-0.000174185 -0.00022189 0.100146)
(-0.000194473 -0.000211896 0.10011)
(-0.000212362 -0.000202748 0.0999581)
(-0.000222788 -0.000193931 0.0994339)
(-0.000189217 -0.000167251 0.0970494)
(-0.000133128 -0.000123406 0.0881604)
(9.92253e-05 -0.000159347 0.0862855)
(0.000156543 -0.000174358 0.0959855)
(0.000199868 -0.000198202 0.0992201)
(0.000192309 -0.000209635 0.0999734)
(0.000175503 -0.000224354 0.100162)
(0.00015641 -0.000240413 0.100174)
(0.000137983 -0.00025532 0.10014)
(0.000121123 -0.000267362 0.100108)
(0.000105392 -0.000275977 0.100091)
(8.99864e-05 -0.000281576 0.100087)
(7.43499e-05 -0.000284962 0.100092)
(5.82603e-05 -0.000286924 0.1001)
(4.17078e-05 -0.000288008 0.100108)
(2.47877e-05 -0.00028853 0.100114)
(7.64187e-06 -0.000288631 0.100117)
(-9.59748e-06 -0.000288343 0.100118)
(-2.67721e-05 -0.000287642 0.100117)
(-4.37649e-05 -0.000286463 0.100113)
(-6.04567e-05 -0.000284664 0.100107)
(-7.67789e-05 -0.000281996 0.100101)
(-9.27775e-05 -0.000278048 0.100095)
(-0.000108632 -0.000272263 0.100095)
(-0.000124827 -0.000264085 0.100104)
(-0.000141949 -0.000253313 0.100123)
(-0.000160265 -0.000240429 0.10014)
(-0.000178725 -0.000226711 0.100112)
(-0.000194675 -0.000213527 0.0999178)
(-0.000202137 -0.000200544 0.0991797)
(-0.000162734 -0.000167837 0.095991)
(-0.000114608 -0.000134347 0.0863338)
(7.56441e-05 -0.000149421 0.0838332)
(0.000117445 -0.000166904 0.0942879)
(0.000170116 -0.000199446 0.0988282)
(0.000169513 -0.000214377 0.0999073)
(0.000155711 -0.000235531 0.100093)
(0.00013908 -0.000257188 0.100065)
(0.000123522 -0.000275713 0.100017)
(0.000109604 -0.000289509 0.0999964)
(9.6474e-05 -0.000298736 0.100002)
(8.31887e-05 -0.000304422 0.100022)
(6.92083e-05 -0.000307777 0.100048)
(5.44242e-05 -0.000309693 0.100072)
(3.89483e-05 -0.000310778 0.100091)
(2.29604e-05 -0.000311316 0.100105)
(6.67109e-06 -0.000311412 0.100112)
(-9.70555e-06 -0.000311098 0.100113)
(-2.59921e-05 -0.000310329 0.100109)
(-4.19814e-05 -0.000309052 0.100099)
(-5.75029e-05 -0.000307133 0.100084)
(-7.24114e-05 -0.000304333 0.100064)
(-8.66317e-05 -0.000300224 0.10004)
(-0.000100317 -0.000294137 0.100018)
(-0.000113921 -0.000285263 0.100003)
(-0.000128246 -0.000272847 0.100006)
(-0.000143843 -0.000256947 0.100025)
(-0.000160226 -0.00023852 0.100018)
(-0.000173743 -0.000219896 0.0998021)
(-0.000175741 -0.000203459 0.0987185)
(-0.000129033 -0.000160475 0.0942313)
(-9.87222e-05 -0.000119776 0.0838612)
(1.922e-05 -0.000222199 0.0806302)