/*--------------------------------*- C++ -*----------------------------------*\
| =========                 |                                                 |
| \\      /  F ield         | OpenFOAM: The Open Source CFD Toolbox           |
|  \\    /   O peration     | Version:  2312                                  |
|   \\  /    A nd           | Website:  www.openfoam.com                      |
|    \\/     M anipulation  |                                                 |
\*---------------------------------------------------------------------------*/
FoamFile
{
    version     2.0;
    format      ascii;
    arch        "LSB;label=32;scalar=64";
    class       volScalarField;
    location    "350";
    object      alphat;
}
// * * * * * * * * * * * * * * * * * * * * * * * * * * * * * * * * * * * * * //

dimensions      [1 -1 -1 0 0 0 0];

internalField   nonuniform List<scalar> 
27000
(
0.00395223
0.00670683
0.00936382
0.0117398
0.014048
0.016202
0.0181573
0.0198085
0.0212287
0.0224414
0.0234417
0.0242337
0.0248248
0.0252178
0.025414
0.025414
0.0252179
0.0248249
0.0242339
0.0234419
0.0224415
0.0212289
0.0198088
0.0181576
0.0162024
0.0140483
0.0117401
0.00936406
0.00670703
0.00395235
0.00575276
0.00128132
0.0051595
0.00907812
0.0131625
0.0170414
0.0207058
0.0241135
0.0272008
0.029947
0.0323337
0.0343215
0.0358582
0.036904
0.0374334
0.0374335
0.0369043
0.0358587
0.0343222
0.0323345
0.029948
0.0272018
0.0241144
0.0207064
0.0170414
0.0131625
0.00907829
0.00515973
0.00128147
0.00575286
0.00922778
0.00714046
0.0145109
0.0261333
0.0368657
0.046225
0.0547841
0.0628117
0.070128
0.0765967
0.0821446
0.0867012
0.0901887
0.0925463
0.0937353
0.0937351
0.0925457
0.0901882
0.0867006
0.0821436
0.0765949
0.0701253
0.0628077
0.054778
0.0462164
0.0368572
0.0261276
0.0145096
0.00714149
0.00922808
0.0121559
0.0108402
0.0260399
0.0526221
0.0782476
0.096354
0.109838
0.120891
0.130231
0.138016
0.144416
0.149508
0.153315
0.155848
0.157113
0.157112
0.155846
0.153312
0.149504
0.14441
0.138009
0.130223
0.12088
0.109824
0.0963377
0.0782325
0.0526114
0.0260368
0.0108412
0.0121562
0.0149203
0.0144746
0.0368572
0.076179
0.113302
0.139156
0.155992
0.167809
0.176744
0.183266
0.188302
0.192218
0.195085
0.196966
0.197899
0.197898
0.196964
0.195081
0.192214
0.188297
0.183261
0.176737
0.167799
0.15598
0.139144
0.113291
0.0761708
0.0368545
0.0144756
0.0149206
0.0174808
0.0184128
0.0476871
0.095223
0.137816
0.167197
0.185396
0.196789
0.204319
0.209438
0.213034
0.215619
0.21743
0.218589
0.219155
0.219155
0.218588
0.217429
0.215617
0.213032
0.209436
0.204316
0.196785
0.185392
0.167193
0.137811
0.0952187
0.0476856
0.018414
0.0174809
0.0198133
0.0225591
0.0585751
0.111488
0.155734
0.185087
0.202825
0.213198
0.219354
0.223114
0.22549
0.227037
0.228045
0.228659
0.228952
0.228952
0.228659
0.228045
0.227037
0.225491
0.223115
0.219355
0.213199
0.202826
0.185088
0.155734
0.111488
0.0585766
0.0225608
0.0198132
0.0218981
0.0267579
0.069128
0.125587
0.169829
0.197322
0.213344
0.222247
0.227099
0.229745
0.231209
0.232037
0.232513
0.232778
0.232897
0.232897
0.232778
0.232514
0.232038
0.231211
0.229748
0.227103
0.222251
0.213348
0.197326
0.169834
0.12559
0.0691315
0.02676
0.0218978
0.0237116
0.0308835
0.0789916
0.137675
0.180967
0.206048
0.219971
0.227286
0.23096
0.232731
0.233548
0.23391
0.234062
0.234123
0.234143
0.234144
0.234123
0.234064
0.233912
0.233551
0.232734
0.230965
0.227292
0.219976
0.206054
0.180974
0.13768
0.0789971
0.030886
0.023711
0.0252662
0.0347755
0.0879371
0.147802
0.188837
0.212104
0.22421
0.230136
0.232838
0.23395
0.234329
0.234403
0.234373
0.234327
0.234298
0.234298
0.234327
0.234375
0.234406
0.234333
0.233955
0.232843
0.230142
0.224217
0.212111
0.188843
0.147808
0.0879425
0.0347781
0.0252653
0.026562
0.0382795
0.0957485
0.156283
0.195385
0.216555
0.227019
0.231789
0.233734
0.234373
0.234467
0.234374
0.23425
0.234153
0.234103
0.234104
0.234154
0.234252
0.234377
0.234471
0.234377
0.23374
0.231795
0.227026
0.216562
0.195392
0.15629
0.0957547
0.0382825
0.0265608
0.0275986
0.0412595
0.10221
0.163051
0.200488
0.219842
0.228926
0.232778
0.234158
0.23447
0.234385
0.234202
0.234036
0.233922
0.233867
0.233867
0.233924
0.234038
0.234205
0.23439
0.234475
0.234164
0.232786
0.228934
0.21985
0.200497
0.163061
0.102218
0.041263
0.0275971
0.028376
0.0436003
0.107171
0.168124
0.204207
0.222156
0.230197
0.233375
0.234358
0.234455
0.234265
0.234037
0.233856
0.233741
0.233687
0.233687
0.233743
0.233859
0.23404
0.234269
0.234461
0.234365
0.233383
0.230205
0.222166
0.204219
0.168141
0.107182
0.0436044
0.0283742
0.0288943
0.0452119
0.110532
0.171521
0.206633
0.223627
0.230975
0.233717
0.23445
0.234419
0.23417
0.233923
0.23374
0.233629
0.233577
0.233578
0.23363
0.233743
0.233926
0.234176
0.234425
0.234457
0.233725
0.230985
0.223638
0.206647
0.17154
0.110544
0.0452167
0.0288921
0.0291535
0.0460328
0.112225
0.173214
0.207826
0.22434
0.231344
0.233871
0.234485
0.234394
0.234121
0.233866
0.233685
0.233576
0.233527
0.233528
0.233578
0.233688
0.23387
0.234127
0.234401
0.234494
0.233881
0.231355
0.224353
0.207842
0.173236
0.112241
0.0460385
0.029151
0.0291536
0.0460321
0.112224
0.173212
0.207825
0.224338
0.231343
0.23387
0.234484
0.234392
0.234119
0.233865
0.233683
0.233575
0.233526
0.233527
0.233577
0.233687
0.233869
0.234125
0.2344
0.234493
0.23388
0.231354
0.224352
0.207843
0.173237
0.112242
0.0460386
0.0291509
0.0288946
0.0452101
0.110528
0.171517
0.206629
0.223623
0.230971
0.233712
0.234445
0.234413
0.234166
0.233918
0.233736
0.233625
0.233574
0.233574
0.233627
0.233739
0.233923
0.234172
0.234421
0.234454
0.233722
0.230983
0.223637
0.206648
0.171543
0.110548
0.0452173
0.0288917
0.0283766
0.0435973
0.107166
0.168118
0.204202
0.22215
0.230189
0.233367
0.234349
0.234446
0.234256
0.234029
0.233849
0.233734
0.233681
0.233681
0.233736
0.233852
0.234033
0.234262
0.234454
0.234358
0.233377
0.230201
0.222163
0.20422
0.168145
0.107187
0.0436051
0.0283734
0.0275993
0.0412557
0.102203
0.163044
0.200481
0.219832
0.228915
0.232766
0.234145
0.234457
0.234373
0.23419
0.234025
0.233912
0.233857
0.233858
0.233914
0.234028
0.234194
0.234378
0.234463
0.234152
0.232775
0.228925
0.219844
0.200497
0.163066
0.102225
0.0412637
0.0275961
0.0265627
0.038275
0.09574
0.156275
0.195375
0.216542
0.227003
0.231771
0.233716
0.234354
0.234449
0.234358
0.234234
0.234139
0.234089
0.23409
0.23414
0.234237
0.234361
0.234454
0.23436
0.233722
0.231779
0.227012
0.216552
0.195388
0.156294
0.095761
0.0382829
0.0265595
0.0252668
0.0347706
0.0879266
0.147791
0.188822
0.212086
0.224189
0.230113
0.232814
0.233927
0.234307
0.234382
0.234353
0.234307
0.234279
0.23428
0.234309
0.234355
0.234385
0.23431
0.233931
0.232819
0.230119
0.224196
0.212094
0.188834
0.147808
0.0879461
0.034778
0.0252638
0.0237121
0.0308786
0.0789797
0.137661
0.180946
0.206024
0.219944
0.227258
0.230932
0.232702
0.233521
0.233884
0.234037
0.234099
0.234121
0.234122
0.234101
0.23404
0.233886
0.233524
0.232706
0.230936
0.227263
0.219949
0.20603
0.180958
0.137674
0.0789962
0.0308851
0.0237094
0.0218985
0.0267534
0.0691156
0.12557
0.169803
0.197293
0.213313
0.222215
0.227067
0.229713
0.231177
0.232007
0.232485
0.232752
0.232873
0.232873
0.232753
0.232487
0.23201
0.23118
0.229716
0.22707
0.222218
0.213316
0.197296
0.169809
0.125577
0.0691271
0.0267584
0.0218962
0.0198136
0.0225555
0.0585637
0.11147
0.155708
0.185055
0.202791
0.213164
0.219319
0.223079
0.225456
0.227006
0.228017
0.228634
0.228929
0.228929
0.228635
0.228018
0.227008
0.225458
0.223081
0.219321
0.213166
0.202792
0.185055
0.155708
0.111471
0.0585693
0.0225586
0.019812
0.017481
0.0184106
0.0476795
0.0952061
0.13779
0.167162
0.185363
0.196754
0.204282
0.209399
0.213
0.21559
0.217406
0.218568
0.219137
0.219137
0.218569
0.217407
0.215591
0.213002
0.209401
0.204283
0.196755
0.185363
0.167158
0.137786
0.095201
0.0476791
0.0184122
0.0174799
0.0149205
0.0144731
0.0368513
0.0761664
0.113286
0.139136
0.155968
0.167773
0.176703
0.183218
0.188272
0.192196
0.195068
0.196954
0.19789
0.19789
0.196955
0.195068
0.192196
0.188273
0.183222
0.176703
0.16777
0.155965
0.139133
0.113279
0.0761575
0.0368473
0.0144739
0.0149198
0.012156
0.0108394
0.0260364
0.0526179
0.0782433
0.0963473
0.109828
0.120877
0.130214
0.137997
0.144397
0.149491
0.153304
0.155843
0.157113
0.157114
0.155845
0.153307
0.149495
0.1444
0.137998
0.130214
0.120875
0.109824
0.0963418
0.078236
0.0526088
0.026031
0.0108398
0.0121558
0.00922793
0.00714061
0.0145102
0.0261325
0.0368648
0.0462229
0.0547769
0.062802
0.0701166
0.0765836
0.0821276
0.0866852
0.0901795
0.0925443
0.0937374
0.0937388
0.0925483
0.0901857
0.0866932
0.0821361
0.0765907
0.0701225
0.062806
0.054778
0.0462207
0.036861
0.0261278
0.0145077
0.00714163
0.009228
0.00575272
0.0012812
0.00515887
0.0090774
0.0131613
0.0170397
0.0207033
0.0241104
0.0271972
0.029943
0.0323288
0.0343165
0.035854
0.0369008
0.037431
0.0374317
0.0369027
0.035857
0.0343203
0.0323329
0.0299467
0.0272007
0.0241135
0.0207056
0.0170411
0.0131621
0.00907774
0.00515917
0.00128141
0.00575286
0.00395237
0.00670714
0.0093642
0.0117402
0.0140485
0.0162026
0.018158
0.0198094
0.0212297
0.0224426
0.023443
0.0242352
0.0248264
0.0252193
0.0254154
0.0254152
0.0252189
0.0248256
0.0242343
0.023442
0.0224417
0.0212288
0.0198086
0.0181574
0.0162021
0.0140482
0.0117401
0.00936428
0.00670729
0.00395249
0.00355746
0.00608267
0.00869018
0.0110688
0.0134491
0.0156989
0.0177707
0.0195433
0.0210782
0.0224014
0.0235229
0.0244334
0.0251198
0.0255785
0.0258081
0.025808
0.0255781
0.0251191
0.0244325
0.0235218
0.0224004
0.021077
0.019542
0.017769
0.0156972
0.0134477
0.0110678
0.00868966
0.0060824
0.00355741
0.00511491
0.00160717
0.00744344
0.0110139
0.014596
0.0176126
0.0202102
0.0226128
0.0247006
0.0264826
0.0279547
0.0291221
0.0299967
0.0305813
0.0308743
0.0308748
0.0305827
0.0299987
0.0291244
0.027957
0.0264845
0.024702
0.0226136
0.0202101
0.0176101
0.0145942
0.0110134
0.00744398
0.00160723
0.00511504
0.00867998
0.0101802
0.0132256
0.0167047
0.0218669
0.0273127
0.03234
0.0367314
0.0407286
0.044291
0.0473051
0.0497558
0.0516236
0.0528788
0.0535012
0.0535018
0.0528799
0.0516224
0.0497538
0.0473032
0.0442899
0.0407261
0.036728
0.0323377
0.0273139
0.0218684
0.0167056
0.0132265
0.010181
0.00867991
0.0115667
0.0133949
0.0179
0.0256968
0.0360144
0.0466686
0.0560982
0.0642832
0.0715299
0.0780045
0.0835858
0.0881089
0.0915193
0.0937896
0.094919
0.0949206
0.0937938
0.0915252
0.0881165
0.0835944
0.0780116
0.0715296
0.0642815
0.0560974
0.0466688
0.0360157
0.0256976
0.0179004
0.013395
0.0115664
0.0144259
0.015876
0.0228064
0.035942
0.0545483
0.0740242
0.0900957
0.102556
0.11268
0.121385
0.128524
0.134079
0.138161
0.140789
0.142063
0.142064
0.140793
0.138172
0.134093
0.128536
0.12139
0.11268
0.102551
0.090087
0.0740151
0.0545449
0.0359413
0.0228055
0.0158748
0.0144253
0.0171444
0.0180979
0.0286248
0.0471395
0.0735859
0.100215
0.122331
0.138197
0.149706
0.158493
0.165274
0.170384
0.174048
0.1764
0.177542
0.177542
0.176401
0.174051
0.170387
0.165273
0.158486
0.149694
0.13818
0.12231
0.100195
0.0735729
0.047135
0.0286234
0.0180956
0.0171438
0.0196581
0.0205468
0.0339775
0.0583416
0.0910542
0.122581
0.146948
0.164197
0.176146
0.184564
0.190601
0.194917
0.197899
0.199775
0.200678
0.200678
0.199773
0.197896
0.194912
0.190592
0.18455
0.176128
0.164176
0.146925
0.122557
0.0910366
0.0583335
0.0339733
0.0205463
0.0196576
0.0219615
0.02303
0.0390575
0.0688849
0.106075
0.13983
0.164821
0.182135
0.19376
0.201523
0.20674
0.210248
0.212554
0.213956
0.214618
0.214617
0.213952
0.212549
0.21024
0.206728
0.201507
0.193741
0.182115
0.1648
0.139809
0.106058
0.0688729
0.0390535
0.0230302
0.021961
0.0240607
0.0253429
0.0439287
0.0787895
0.119005
0.153212
0.177788
0.194383
0.205201
0.212124
0.216521
0.2193
0.221022
0.22202
0.222479
0.222477
0.222017
0.221016
0.219291
0.216509
0.212109
0.205184
0.194364
0.177769
0.153195
0.118988
0.0787738
0.0439214
0.025344
0.0240604
0.0259001
0.0274234
0.0483513
0.0874621
0.130173
0.163771
0.187294
0.202778
0.212573
0.218597
0.222229
0.224382
0.225629
0.22631
0.22661
0.226609
0.226307
0.225624
0.224374
0.222218
0.218585
0.212559
0.202763
0.187279
0.163757
0.130161
0.0874487
0.0483535
0.0274258
0.0259
0.0274587
0.0292371
0.0522014
0.094631
0.138532
0.171739
0.194193
0.208531
0.217307
0.22249
0.225453
0.227096
0.227976
0.228419
0.228602
0.228601
0.228416
0.227971
0.227089
0.225444
0.222479
0.217295
0.208519
0.194182
0.171729
0.138523
0.0946186
0.0522071
0.0292401
0.0274588
0.0287219
0.0307472
0.0554145
0.100378
0.14488
0.177599
0.199103
0.212432
0.220323
0.224797
0.227221
0.228471
0.22908
0.229354
0.229456
0.229455
0.229352
0.229076
0.228465
0.227214
0.224789
0.220314
0.212422
0.199095
0.177592
0.144872
0.100363
0.0554197
0.0307504
0.0287222
0.0296785
0.0319186
0.0579226
0.10475
0.149538
0.18176
0.202475
0.215001
0.222203
0.226135
0.228159
0.229127
0.229549
0.22971
0.229759
0.229758
0.229708
0.229545
0.229122
0.228152
0.226128
0.222195
0.214994
0.202468
0.181754
0.14953
0.104737
0.0579279
0.0319216
0.0296791
0.0303205
0.0327204
0.0596454
0.107725
0.152624
0.184448
0.204596
0.216565
0.223296
0.226866
0.228628
0.229416
0.229722
0.229814
0.229832
0.229831
0.229812
0.229719
0.229412
0.228622
0.226859
0.223289
0.216558
0.204589
0.184441
0.152616
0.10771
0.0596496
0.0327225
0.0303213
0.0306428
0.0331305
0.0605253
0.109223
0.154164
0.18577
0.205622
0.217306
0.2238
0.227189
0.228821
0.229522
0.229772
0.229833
0.229836
0.229835
0.229831
0.229769
0.229518
0.228815
0.227182
0.223793
0.217299
0.205615
0.185762
0.154153
0.109206
0.0605266
0.0331308
0.0306439
0.0306431
0.0331299
0.0605238
0.109221
0.154162
0.185769
0.205622
0.217307
0.223801
0.227189
0.228821
0.229522
0.229772
0.229832
0.229835
0.229834
0.22983
0.229768
0.229517
0.228815
0.227182
0.223792
0.217298
0.205613
0.18576
0.154149
0.109201
0.0605234
0.0331294
0.0306444
0.0303213
0.0327179
0.0596405
0.107718
0.152619
0.184446
0.204596
0.216567
0.223299
0.226868
0.228629
0.229416
0.22972
0.229812
0.229829
0.229828
0.22981
0.229717
0.229411
0.228622
0.22686
0.22329
0.216557
0.204586
0.184435
0.152604
0.107695
0.0596394
0.0327177
0.0303227
0.0296797
0.0319147
0.0579153
0.10474
0.149531
0.181759
0.202479
0.215007
0.222209
0.22614
0.228162
0.229128
0.229548
0.229707
0.229755
0.229754
0.229705
0.229544
0.229123
0.228155
0.226131
0.222199
0.214996
0.202467
0.181746
0.149513
0.104714
0.0579121
0.031914
0.0296813
0.0287235
0.0307425
0.0554066
0.100368
0.144877
0.177604
0.199113
0.212443
0.220335
0.224807
0.227229
0.228475
0.229081
0.229352
0.229453
0.229452
0.22935
0.229077
0.228469
0.227221
0.224798
0.220325
0.212432
0.1991
0.177589
0.144855
0.100335
0.0554004
0.030741
0.0287253
0.0274607
0.0292324
0.0521939
0.0946222
0.138533
0.171751
0.194212
0.208551
0.217326
0.222507
0.225466
0.227105
0.22798
0.22842
0.228602
0.228601
0.228418
0.227976
0.227099
0.225459
0.222497
0.217316
0.20854
0.194199
0.171736
0.13851
0.0945879
0.0521859
0.0292303
0.0274626
0.0259024
0.0274197
0.0483471
0.0874582
0.130182
0.163794
0.187324
0.202809
0.212602
0.218622
0.222248
0.224396
0.225638
0.226315
0.226613
0.226612
0.226313
0.225634
0.22439
0.222241
0.218613
0.212592
0.202798
0.187311
0.163778
0.130159
0.0874243
0.0483368
0.0274169
0.0259043
0.0240633
0.0253406
0.0439291
0.0787939
0.119024
0.153249
0.177831
0.194425
0.205239
0.212156
0.216548
0.21932
0.221036
0.22203
0.222485
0.222484
0.222027
0.221032
0.219314
0.216541
0.212148
0.205229
0.194415
0.17782
0.153233
0.118997
0.0787632
0.0439179
0.0253375
0.0240651
0.0219641
0.0230292
0.0390627
0.0689021
0.106117
0.139889
0.164883
0.18219
0.193807
0.201563
0.206773
0.210274
0.212574
0.213969
0.214628
0.214627
0.213966
0.212569
0.210269
0.206766
0.201555
0.193799
0.182182
0.164875
0.139879
0.106099
0.0688808
0.0390529
0.0230263
0.0219657
0.0196603
0.0205478
0.0339863
0.058369
0.0911204
0.122671
0.147031
0.164265
0.176202
0.184611
0.19064
0.194948
0.197922
0.19979
0.200689
0.200688
0.199787
0.197918
0.194944
0.190635
0.184605
0.176196
0.16426
0.147027
0.122666
0.0911144
0.0583617
0.0339798
0.0205456
0.0196611
0.0171463
0.018102
0.02863
0.0471695
0.0736618
0.100322
0.122439
0.138277
0.149772
0.158551
0.16532
0.170419
0.174074
0.176414
0.177549
0.177548
0.176412
0.174071
0.170417
0.165317
0.158548
0.14977
0.138278
0.122442
0.100328
0.0736684
0.0471724
0.028629
0.0180998
0.017147
0.0144275
0.0158773
0.0228122
0.0359617
0.0545993
0.0741178
0.0902003
0.102646
0.11276
0.121463
0.128581
0.134125
0.138192
0.140805
0.142068
0.142067
0.140802
0.13819
0.134123
0.12858
0.121459
0.11276
0.102651
0.0902123
0.0741317
0.0546121
0.0359689
0.0228132
0.0158755
0.0144282
0.0115673
0.0133934
0.0179029
0.0257038
0.0360289
0.0467073
0.0561425
0.0643282
0.0715769
0.0780615
0.083654
0.0881778
0.0915713
0.0938212
0.0949393
0.0949372
0.0938149
0.0915615
0.0881649
0.0836409
0.0780518
0.0715695
0.0643261
0.0561473
0.0467164
0.0360375
0.0257076
0.0179052
0.0133922
0.0115677
0.00867945
0.0101754
0.0132252
0.0167082
0.0218708
0.0273162
0.0323484
0.0367381
0.0407331
0.0442973
0.0473365
0.0497844
0.0516211
0.0528467
0.0534601
0.0534595
0.0528449
0.0516175
0.0497764
0.0473253
0.0442906
0.0407269
0.0367328
0.0323456
0.0273178
0.0218731
0.01671
0.0132267
0.0101747
0.00867948
0.00511474
0.00160657
0.00744315
0.0110132
0.0145968
0.017615
0.0202115
0.0226124
0.0246978
0.0264771
0.0279474
0.0291114
0.0299821
0.0305636
0.030855
0.0308551
0.0305638
0.0299824
0.0291116
0.0279473
0.0264772
0.0246974
0.0226113
0.0202095
0.0176105
0.014593
0.0110108
0.00744222
0.00160606
0.00511462
0.00355711
0.00608182
0.00868967
0.0110688
0.01345
0.0157007
0.0177732
0.0195458
0.021081
0.0224045
0.0235263
0.0244369
0.0251235
0.0255823
0.0258121
0.0258122
0.0255825
0.0251237
0.0244372
0.0235265
0.0224044
0.0210808
0.0195455
0.0177729
0.0157002
0.0134495
0.0110683
0.00868921
0.00608148
0.00355695
0.00337661
0.00573989
0.00825386
0.0105688
0.0128915
0.015086
0.017102
0.01884
0.020364
0.0216834
0.0227849
0.0236672
0.0243319
0.0247768
0.0249999
0.0250004
0.024778
0.0243339
0.0236698
0.022788
0.0216866
0.0203673
0.018843
0.0171049
0.0150882
0.0128929
0.0105693
0.0082537
0.00573926
0.00337612
0.00489774
0.00256071
0.0107572
0.0160451
0.0211114
0.0255918
0.0293988
0.0323634
0.034639
0.0363617
0.0376626
0.0386377
0.03934
0.0397974
0.0400235
0.0400235
0.0397974
0.0393398
0.0386371
0.0376612
0.0363594
0.0346355
0.0323575
0.0293906
0.0255842
0.0211038
0.0160383
0.0107523
0.00255754
0.00489668
0.00830905
0.013179
0.0172992
0.0210643
0.024084
0.0271906
0.0301842
0.0330467
0.0357729
0.0382693
0.0404388
0.0422272
0.0435972
0.044526
0.0449985
0.0449968
0.0445214
0.0435914
0.0422209
0.040433
0.0382645
0.0357692
0.0330356
0.0301732
0.0271816
0.024079
0.0210619
0.0172967
0.0131717
0.00830806
0.0110771
0.0183094
0.0233214
0.0248438
0.0286607
0.0349886
0.0415919
0.0477512
0.0532667
0.0579847
0.0618769
0.0650445
0.0674554
0.0690834
0.0699033
0.069898
0.0690681
0.0674315
0.065015
0.0618465
0.0579605
0.0532617
0.0477656
0.041604
0.0349954
0.0286666
0.0248463
0.0233164
0.0182988
0.0110765
0.0137993
0.0222459
0.0264169
0.0295185
0.038723
0.0506781
0.0619514
0.0717484
0.0798885
0.0867842
0.092511
0.0971416
0.100625
0.103047
0.104304
0.104296
0.103022
0.100578
0.0970838
0.0924577
0.086755
0.0798823
0.0717604
0.0619714
0.0506977
0.0387277
0.0295237
0.0264108
0.0222376
0.0138
0.0164134
0.0256649
0.0286489
0.0358967
0.0507655
0.0685492
0.0857412
0.100941
0.113081
0.122566
0.129964
0.13562
0.139671
0.142285
0.143583
0.143579
0.142271
0.139645
0.135584
0.129936
0.122558
0.113096
0.100973
0.085787
0.0685852
0.0507909
0.0359079
0.0286424
0.0256593
0.0164151
0.01888
0.0282541
0.0310267
0.0435908
0.0630623
0.0861999
0.109602
0.128589
0.142534
0.152783
0.160373
0.165937
0.169835
0.172304
0.173505
0.173503
0.172299
0.169826
0.165928
0.16037
0.152792
0.142554
0.128621
0.109648
0.0862491
0.0630918
0.0436039
0.0310209
0.0282504
0.0188827
0.0211539
0.0303281
0.0341156
0.0510787
0.0747934
0.103208
0.129625
0.149827
0.164426
0.174798
0.182151
0.187317
0.190822
0.192996
0.194036
0.194036
0.192995
0.190822
0.187318
0.182156
0.174809
0.164444
0.149852
0.129656
0.10324
0.0748122
0.0510842
0.034111
0.0303278
0.0211574
0.0231892
0.0320075
0.0375023
0.057464
0.085109
0.117723
0.145117
0.165504
0.179976
0.190026
0.196925
0.201595
0.204658
0.206507
0.207377
0.207378
0.206508
0.20466
0.201599
0.19693
0.190035
0.179989
0.16552
0.145134
0.117735
0.0851117
0.0574651
0.0374946
0.0320101
0.0231932
0.0249815
0.03338
0.0408557
0.0634572
0.0950752
0.129638
0.157021
0.176957
0.190871
0.200341
0.206668
0.210813
0.21344
0.21498
0.215691
0.215691
0.214981
0.213442
0.210816
0.206672
0.200347
0.190878
0.176964
0.157028
0.129639
0.0950649
0.0634542
0.0408384
0.0333856
0.0249858
0.0265109
0.0345046
0.043929
0.0687489
0.103732
0.138933
0.165988
0.185241
0.198432
0.207228
0.212955
0.216592
0.21882
0.220086
0.220657
0.220657
0.220086
0.21882
0.216593
0.212956
0.207229
0.198434
0.185242
0.165986
0.138924
0.103715
0.0687453
0.0439075
0.0345131
0.0265152
0.0277585
0.0354109
0.046499
0.0731094
0.110635
0.146007
0.172571
0.191119
0.203594
0.211742
0.216917
0.220105
0.221994
0.223032
0.223489
0.223489
0.223031
0.221993
0.220104
0.216915
0.21174
0.203591
0.191114
0.172563
0.145993
0.11062
0.0731154
0.0464938
0.0354219
0.0277626
0.0287085
0.0361057
0.0484344
0.0763803
0.115729
0.151098
0.177189
0.195126
0.206996
0.214605
0.219328
0.222159
0.223783
0.224647
0.225017
0.225017
0.224646
0.223781
0.222156
0.219325
0.2146
0.20699
0.195118
0.177178
0.151085
0.115717
0.0763898
0.0484317
0.036117
0.0287122
0.0293489
0.0365892
0.0497658
0.0785442
0.119068
0.154391
0.180125
0.19762
0.209059
0.216286
0.220693
0.223277
0.22472
0.225467
0.22578
0.22578
0.225466
0.224718
0.223273
0.220689
0.21628
0.209052
0.197611
0.180114
0.15438
0.119062
0.0785573
0.0497634
0.0365977
0.029352
0.0296717
0.0368743
0.0504505
0.0796344
0.120724
0.15601
0.181554
0.198818
0.210033
0.217063
0.221308
0.223767
0.225119
0.225808
0.226092
0.226092
0.225806
0.225117
0.223764
0.221305
0.217059
0.210028
0.198812
0.181547
0.156004
0.120724
0.0796501
0.050447
0.0368681
0.029674
0.029671
0.0368758
0.0504525
0.0796402
0.120735
0.156019
0.18156
0.198823
0.210037
0.217067
0.221312
0.223771
0.225124
0.225813
0.226097
0.226097
0.225812
0.225123
0.223769
0.22131
0.217065
0.210034
0.19882
0.181558
0.156018
0.120741
0.0796581
0.0504492
0.0368706
0.0296728
0.0293465
0.0365874
0.0497712
0.0785617
0.1191
0.154415
0.180141
0.197632
0.209069
0.216296
0.220704
0.223289
0.224734
0.225482
0.225796
0.225796
0.225482
0.224734
0.223289
0.220704
0.216297
0.209071
0.197634
0.180144
0.15442
0.119111
0.0785811
0.0497691
0.0365941
0.0293483
0.0287045
0.0361025
0.0484435
0.0764092
0.115779
0.151134
0.177212
0.195143
0.207011
0.21462
0.219345
0.222178
0.223804
0.224671
0.225043
0.225043
0.224672
0.223806
0.22218
0.219348
0.214625
0.207017
0.19515
0.177221
0.151144
0.115794
0.0764293
0.0484412
0.0361104
0.0287061
0.0277532
0.0354072
0.0465122
0.0731475
0.110698
0.146048
0.172596
0.191137
0.20361
0.21176
0.216937
0.22013
0.222022
0.223064
0.223523
0.223524
0.223066
0.222025
0.220134
0.216943
0.211767
0.20362
0.191149
0.17261
0.146063
0.110717
0.0731704
0.0465088
0.0354141
0.0277546
0.0265047
0.0345016
0.0439487
0.0687955
0.1038
0.138971
0.166008
0.185256
0.198447
0.207246
0.212978
0.216621
0.218855
0.220125
0.220699
0.2207
0.220127
0.218858
0.216626
0.212985
0.207256
0.19846
0.185271
0.166026
0.138991
0.10382
0.0688156
0.0439398
0.0345063
0.0265058
0.0249748
0.0333786
0.0408748
0.0635029
0.0951361
0.129668
0.157033
0.176965
0.190883
0.200359
0.206694
0.210846
0.21348
0.215026
0.21574
0.215741
0.215028
0.213483
0.210851
0.206701
0.200369
0.190896
0.176982
0.157054
0.129692
0.0951593
0.063523
0.0408693
0.0333809
0.0249756
0.0231823
0.032008
0.0375186
0.057501
0.0851598
0.117742
0.145114
0.165502
0.179983
0.190042
0.196952
0.201632
0.204703
0.206559
0.207433
0.207433
0.20656
0.204706
0.201636
0.196958
0.190051
0.179994
0.165518
0.145136
0.11777
0.0851905
0.0575205
0.0375167
0.0320081
0.0231829
0.0211474
0.030331
0.0341287
0.0510969
0.0747922
0.103181
0.129592
0.149808
0.164424
0.174812
0.182181
0.18736
0.190875
0.193055
0.1941
0.194101
0.193056
0.190875
0.187361
0.182183
0.174817
0.164433
0.149821
0.129611
0.103208
0.0748194
0.0511133
0.0341289
0.030329
0.0211478
0.0188746
0.0282598
0.0310417
0.0435812
0.0630175
0.0861118
0.109523
0.128544
0.142519
0.152795
0.160412
0.165996
0.169901
0.172379
0.173586
0.173585
0.172377
0.169897
0.165988
0.160406
0.152794
0.142523
0.128552
0.10954
0.0861374
0.0630404
0.0435963
0.0310375
0.0282552
0.0188751
0.0164093
0.0256708
0.0286606
0.0358874
0.0507113
0.0684507
0.0856136
0.100871
0.113054
0.12258
0.130024
0.135713
0.13976
0.142385
0.143692
0.14369
0.142377
0.139745
0.135686
0.129998
0.122564
0.113048
0.100873
0.0856209
0.0684619
0.0507254
0.0358985
0.0286558
0.0256647
0.0164094
0.0137967
0.0222545
0.0264233
0.0295109
0.0387159
0.0506014
0.0618628
0.0716864
0.0798538
0.086779
0.0925519
0.0972177
0.100727
0.103168
0.104438
0.104433
0.103154
0.1007
0.0971835
0.0925182
0.0867595
0.0798447
0.0716866
0.0618639
0.0506048
0.0387204
0.0295176
0.0264203
0.022248
0.0137961
0.0110767
0.0183213
0.0233244
0.0248357
0.0286498
0.0349861
0.0415908
0.0477501
0.0532728
0.057985
0.0618847
0.0650633
0.0674875
0.0691272
0.0699538
0.0699514
0.0691202
0.0674767
0.0650502
0.0618709
0.0579731
0.0532689
0.047763
0.0416021
0.0349928
0.0286558
0.0248413
0.0233226
0.0183147
0.0110758
0.00831026
0.0131883
0.0172976
0.021059
0.0240819
0.0271953
0.0301922
0.0330619
0.0357981
0.0383045
0.0404747
0.0422739
0.0436637
0.044609
0.0450863
0.0450842
0.0446031
0.0436551
0.0422653
0.0404669
0.0382956
0.0357904
0.0330512
0.0301835
0.0271894
0.0240796
0.0210586
0.0172965
0.0131841
0.00830955
0.0048988
0.00256511
0.0107605
0.0160524
0.0211206
0.0256004
0.0294068
0.03237
0.0346438
0.0363641
0.0376622
0.0386349
0.0393352
0.0397913
0.0400168
0.0400172
0.0397922
0.0393363
0.0386358
0.0376624
0.0363633
0.0346418
0.0323664
0.0294019
0.0255966
0.0211169
0.0160491
0.0107569
0.00256338
0.00489791
0.00337726
0.00574097
0.00825425
0.0105682
0.0128893
0.0150818
0.0170958
0.0188323
0.0203547
0.0216725
0.0227725
0.0236536
0.0243173
0.0247614
0.0249842
0.0249845
0.0247623
0.0243187
0.0236554
0.0227748
0.0216751
0.0203574
0.0188349
0.0170981
0.0150837
0.0128907
0.010569
0.0082545
0.00574076
0.00337695
0.00332263
0.00563986
0.00812674
0.0104423
0.0127577
0.0149463
0.0169594
0.0186886
0.0201946
0.021494
0.0225819
0.0234551
0.0241118
0.0245503
0.0247696
0.0247692
0.0245489
0.0241095
0.0234522
0.0225786
0.0214906
0.0201915
0.0186861
0.0169578
0.0149456
0.0127578
0.010443
0.00812766
0.00564097
0.00332326
0.00483615
0.0029725
0.0119549
0.0183293
0.0243698
0.0298184
0.0346262
0.0386888
0.0420072
0.0446699
0.0467719
0.0483842
0.049557
0.0503228
0.050701
0.0507007
0.0503221
0.0495563
0.0483842
0.0467732
0.0446731
0.0420127
0.0386984
0.0346406
0.0298347
0.0243846
0.0183396
0.011961
0.00297712
0.00483727
0.00818426
0.0141606
0.0196539
0.0253323
0.0301545
0.0346351
0.0387885
0.0424017
0.0452568
0.0474221
0.0490379
0.0502209
0.0510561
0.0515948
0.0518613
0.0518623
0.0515979
0.0510613
0.0502276
0.0490451
0.047429
0.0452648
0.0424186
0.0388064
0.0346485
0.0301601
0.0253321
0.0196527
0.0141662
0.00818544
0.0109356
0.0203897
0.0275073
0.0310781
0.0340165
0.0368191
0.0400095
0.043332
0.046686
0.0501176
0.053215
0.0558013
0.0578076
0.0591771
0.0598708
0.059868
0.059169
0.0577956
0.0557866
0.0531985
0.0500991
0.0466678
0.0433222
0.0400059
0.0368176
0.0340108
0.031074
0.0275128
0.0204073
0.0109366
0.0136242
0.0255711
0.0325653
0.0354172
0.0373462
0.0425663
0.0504879
0.0582268
0.0649662
0.0709087
0.075992
0.0800225
0.083092
0.0851465
0.0861755
0.0861822
0.0851659
0.0831235
0.0800592
0.0760216
0.0709085
0.0649602
0.0582207
0.0504919
0.0425761
0.037348
0.0354183
0.0325784
0.0255863
0.0136238
0.0162039
0.0302688
0.0363309
0.0384039
0.0428942
0.0548818
0.0681362
0.0794967
0.0889143
0.0966617
0.10305
0.108215
0.112227
0.115021
0.11644
0.116447
0.115042
0.112261
0.108268
0.103091
0.0966741
0.0889036
0.0794693
0.0681087
0.0548948
0.0429002
0.0384096
0.0363475
0.0302813
0.0162018
0.0186144
0.034394
0.0392519
0.0411875
0.0514009
0.0684409
0.0856459
0.101672
0.115542
0.126355
0.134579
0.140684
0.145024
0.147868
0.14928
0.149283
0.147878
0.145041
0.140707
0.134593
0.12635
0.115519
0.101635
0.0856005
0.0684136
0.0513992
0.041193
0.0392677
0.0344006
0.0186106
0.020826
0.0379191
0.0413254
0.0447283
0.0608343
0.0811998
0.10275
0.12332
0.13933
0.151117
0.1597
0.165866
0.170129
0.172827
0.17414
0.174142
0.172833
0.170138
0.165876
0.159707
0.151116
0.139318
0.123292
0.10272
0.0811814
0.0608358
0.0447285
0.0413364
0.0379197
0.0208208
0.0228139
0.0409022
0.042964
0.0495076
0.0697736
0.0928744
0.118592
0.140713
0.157333
0.169348
0.177891
0.183869
0.187903
0.190398
0.191592
0.191594
0.190402
0.18791
0.183877
0.1779
0.169353
0.157333
0.140708
0.118587
0.0928813
0.0697909
0.0495102
0.042977
0.0408985
0.0228077
0.0245571
0.0433597
0.0443726
0.0543373
0.0772742
0.103467
0.131725
0.154041
0.170545
0.182326
0.190577
0.196241
0.199986
0.202261
0.203335
0.203337
0.202265
0.199994
0.196251
0.190589
0.182338
0.170557
0.154052
0.13174
0.103496
0.0773051
0.0543429
0.0443861
0.0433517
0.0245502
0.0260382
0.0453364
0.045615
0.0588321
0.0837327
0.112959
0.141797
0.163981
0.180075
0.191422
0.199264
0.20456
0.208001
0.210057
0.211017
0.211019
0.210062
0.20801
0.204572
0.199279
0.191439
0.180094
0.164003
0.141828
0.113004
0.0837719
0.0588416
0.0456284
0.045325
0.0260312
0.0272422
0.0468698
0.0467028
0.0624669
0.088925
0.120508
0.149401
0.171206
0.186803
0.197672
0.205088
0.210022
0.213176
0.215031
0.215889
0.21589
0.215037
0.213185
0.210035
0.205105
0.197693
0.186828
0.171237
0.149442
0.120563
0.088967
0.0624806
0.0467068
0.0468561
0.0272354
0.0281567
0.0479923
0.0476228
0.0652878
0.0928068
0.126031
0.154824
0.176225
0.191364
0.201806
0.208849
0.213472
0.216384
0.218074
0.218847
0.218849
0.21808
0.216394
0.213485
0.208867
0.201829
0.191393
0.17626
0.154869
0.126087
0.092845
0.0653004
0.0476265
0.0479788
0.0281506
0.028772
0.0487226
0.04829
0.0672146
0.0953806
0.129621
0.158295
0.179387