/*--------------------------------*- C++ -*----------------------------------*\
| =========                 |                                                 |
| \\      /  F ield         | OpenFOAM: The Open Source CFD Toolbox           |
|  \\    /   O peration     | Version:  2312                                  |
|   \\  /    A nd           | Website:  www.openfoam.com                      |
|    \\/     M anipulation  |                                                 |
\*---------------------------------------------------------------------------*/
FoamFile
{
    version     2.0;
    format      ascii;
    arch        "LSB;label=32;scalar=64";
    class       volScalarField;
    location    "350";
    object      epsilon;
}
// * * * * * * * * * * * * * * * * * * * * * * * * * * * * * * * * * * * * * //

dimensions      [0 2 -3 0 0 0 0];

internalField   nonuniform List<scalar> 
27000
(
0.00152948
0.000225037
0.000110934
7.00664e-05
5.1964e-05
4.16709e-05
3.49661e-05
3.03278e-05
2.69952e-05
2.45545e-05
2.274e-05
2.14097e-05
2.04806e-05
1.98919e-05
1.96062e-05
1.96062e-05
1.98918e-05
2.04804e-05
2.14096e-05
2.274e-05
2.45545e-05
2.69953e-05
3.03283e-05
3.4967e-05
4.16725e-05
5.19665e-05
7.00705e-05
0.000110942
0.000225058
0.00152961
0.000151176
3.26506e-05
1.39595e-05
9.32621e-06
7.19282e-06
5.96016e-06
5.12211e-06
4.50966e-06
4.05089e-06
3.70742e-06
3.45022e-06
3.26042e-06
3.12688e-06
3.04192e-06
3.00062e-06
3.00065e-06
3.04201e-06
3.12703e-06
3.26064e-06
3.45052e-06
3.70782e-06
4.05142e-06
4.51037e-06
5.12309e-06
5.96154e-06
7.19471e-06
9.32858e-06
1.39622e-05
3.26558e-05
0.000151189
0.000100307
1.54314e-05
5.157e-06
2.5599e-06
1.90921e-06
1.62461e-06
1.44631e-06
1.31754e-06
1.21963e-06
1.14459e-06
1.08739e-06
1.04464e-06
1.0142e-06
9.94645e-07
9.85084e-07
9.851e-07
9.94693e-07
1.01428e-06
1.04475e-06
1.08753e-06
1.14476e-06
1.21984e-06
1.31782e-06
1.44666e-06
1.62506e-06
1.9098e-06
2.56072e-06
5.15869e-06
1.54352e-05
0.000100318
6.66856e-05
1.03388e-05
2.85001e-06
1.38577e-06
9.88729e-07
8.4904e-07
7.78158e-07
7.31463e-07
6.96991e-07
6.70802e-07
6.50647e-07
6.35403e-07
6.24447e-07
6.17357e-07
6.13877e-07
6.13885e-07
6.1738e-07
6.24484e-07
6.35455e-07
6.50709e-07
6.70875e-07
6.97078e-07
7.31568e-07
7.78283e-07
8.49188e-07
9.88918e-07
1.38606e-06
2.8507e-06
1.03407e-05
6.66903e-05
4.92045e-05
7.28836e-06
2.05419e-06
1.03777e-06
7.44851e-07
6.37045e-07
5.88982e-07
5.62117e-07
5.44244e-07
5.32515e-07
5.23801e-07
5.17088e-07
5.12226e-07
5.09062e-07
5.07501e-07
5.07505e-07
5.09073e-07
5.12245e-07
5.17113e-07
5.23827e-07
5.3254e-07
5.44277e-07
5.62154e-07
5.89024e-07
6.37094e-07
7.4492e-07
1.03791e-06
2.05453e-06
7.28935e-06
4.92063e-05
3.86067e-05
5.62966e-06
1.63638e-06
8.76542e-07
6.47577e-07
5.58696e-07
5.1967e-07
5.00143e-07
4.88959e-07
4.82042e-07
4.77406e-07
4.741e-07
4.71771e-07
4.70271e-07
4.69535e-07
4.69537e-07
4.70276e-07
4.71779e-07
4.74109e-07
4.77415e-07
4.8205e-07
4.88967e-07
5.00152e-07
5.1968e-07
5.58711e-07
6.47609e-07
8.76619e-07
1.63658e-06
5.63016e-06
3.86069e-05
3.16102e-05
4.60542e-06
1.39314e-06
7.81984e-07
5.95628e-07
5.22317e-07
4.89657e-07
4.74083e-07
4.6608e-07
4.61647e-07
4.58992e-07
4.57281e-07
4.56149e-07
4.55444e-07
4.55103e-07
4.55104e-07
4.55446e-07
4.56151e-07
4.57282e-07
4.58992e-07
4.61645e-07
4.66078e-07
4.74081e-07
4.89658e-07
5.22325e-07
5.95652e-07
7.82049e-07
1.3933e-06
4.60567e-06
3.16094e-05
2.67304e-05
3.9144e-06
1.23286e-06
7.19947e-07
5.62239e-07
5.01645e-07
4.74714e-07
4.62204e-07
4.56208e-07
4.53216e-07
4.51634e-07
4.50733e-07
4.50192e-07
4.49873e-07
4.49723e-07
4.49723e-07
4.49873e-07
4.5019e-07
4.50731e-07
4.5163e-07
4.53212e-07
4.56204e-07
4.62201e-07
4.74715e-07
5.01654e-07
5.62261e-07
7.20007e-07
1.23298e-06
3.91445e-06
2.67287e-05
2.31762e-05
3.41907e-06
1.1174e-06
6.75835e-07
5.39268e-07
4.88474e-07
4.66316e-07
4.56333e-07
4.51807e-07
4.49743e-07
4.48779e-07
4.48303e-07
4.48051e-07
4.47916e-07
4.47855e-07
4.47854e-07
4.47914e-07
4.48049e-07
4.48299e-07
4.48774e-07
4.49739e-07
4.51804e-07
4.56332e-07
4.66321e-07
4.88487e-07
5.39293e-07
6.75889e-07
1.11748e-06
3.41898e-06
2.3174e-05
2.05855e-05
3.05753e-06
1.03145e-06
6.43446e-07
5.25177e-07
4.80125e-07
4.61304e-07
4.53211e-07
4.49757e-07
4.48311e-07
4.47714e-07
4.47463e-07
4.47351e-07
4.47298e-07
4.47276e-07
4.47276e-07
4.47297e-07
4.47349e-07
4.4746e-07
4.47711e-07
4.48309e-07
4.49756e-07
4.53214e-07
4.61313e-07
4.80144e-07
5.2521e-07
6.43497e-07
1.03152e-06
3.05736e-06
2.05829e-05
1.86945e-05
2.79333e-06
9.67264e-07
6.1872e-07
5.13682e-07
4.7416e-07
4.58051e-07
4.51406e-07
4.48731e-07
4.47701e-07
4.47326e-07
4.47195e-07
4.47149e-07
4.47132e-07
4.47126e-07
4.47125e-07
4.47131e-07
4.47148e-07
4.47193e-07
4.47325e-07
4.47702e-07
4.48734e-07
4.51414e-07
4.58065e-07
4.74183e-07
5.13717e-07
6.18767e-07
9.67309e-07
2.79308e-06
1.86916e-05
1.73324e-05
2.6028e-06
9.20259e-07
6.00367e-07
5.0498e-07
4.69774e-07
4.55816e-07
4.50278e-07
4.48168e-07
4.4742e-07
4.4718e-07
4.47114e-07
4.471e-07
4.47097e-07
4.47097e-07
4.47097e-07
4.47097e-07
4.47099e-07
4.47114e-07
4.47181e-07
4.47423e-07
4.48175e-07
4.50289e-07
4.55834e-07
4.69801e-07
5.05015e-07
6.00405e-07
9.20281e-07
2.60248e-06
1.73292e-05
1.63892e-05
2.4707e-06
8.87297e-07
5.87299e-07
4.98786e-07
4.66689e-07
4.54295e-07
4.49554e-07
4.47838e-07
4.47275e-07
4.47119e-07
4.47089e-07
4.47089e-07
4.47093e-07
4.47096e-07
4.47096e-07
4.47093e-07
4.47089e-07
4.4709e-07
4.47122e-07
4.47281e-07
4.47847e-07
4.49569e-07
4.54316e-07
4.66717e-07
4.98818e-07
5.8732e-07
8.873e-07
2.47032e-06
1.63857e-05
1.57949e-05
2.38737e-06
8.66325e-07
5.78836e-07
4.94805e-07
4.64725e-07
4.53344e-07
4.49115e-07
4.47648e-07
4.47198e-07
4.4709e-07
4.47079e-07
4.47087e-07
4.47094e-07
4.47098e-07
4.47098e-07
4.47095e-07
4.47088e-07
4.47081e-07
4.47094e-07
4.47206e-07
4.4766e-07
4.49133e-07
4.53369e-07
4.64756e-07
4.94837e-07
5.78851e-07
8.66312e-07
2.38692e-06
1.57911e-05
1.55077e-05
2.34705e-06
8.5613e-07
5.747e-07
4.92861e-07
4.63771e-07
4.52887e-07
4.48907e-07
4.47559e-07
4.47163e-07
4.47077e-07
4.47075e-07
4.47086e-07
4.47095e-07
4.47099e-07
4.47099e-07
4.47096e-07
4.47088e-07
4.47078e-07
4.47083e-07
4.47173e-07
4.47574e-07
4.48928e-07
4.52914e-07
4.63805e-07
4.92894e-07
5.74713e-07
8.56103e-07
2.34654e-06
1.55035e-05
1.55081e-05
2.34707e-06
8.56122e-07
5.74695e-07
4.92856e-07
4.63768e-07
4.52884e-07
4.48905e-07
4.47557e-07
4.47162e-07
4.47076e-07
4.47074e-07
4.47086e-07
4.47095e-07
4.47099e-07
4.47099e-07
4.47096e-07
4.47089e-07
4.47079e-07
4.47084e-07
4.47174e-07
4.47575e-07
4.48929e-07
4.52916e-07
4.63806e-07
4.92894e-07
5.74708e-07
8.56085e-07
2.34649e-06
1.55034e-05
1.5796e-05
2.38742e-06
8.663e-07
5.78819e-07
4.94791e-07
4.64715e-07
4.53336e-07
4.49109e-07
4.47643e-07
4.47194e-07
4.47087e-07
4.47077e-07
4.47086e-07
4.47094e-07
4.47098e-07
4.47098e-07
4.47095e-07
4.47089e-07
4.47082e-07
4.47095e-07
4.47207e-07
4.47662e-07
4.49136e-07
4.53372e-07
4.64758e-07
4.94835e-07
5.78836e-07
8.66257e-07
2.38677e-06
1.57908e-05
1.6391e-05
2.47079e-06
8.87254e-07
5.87269e-07
4.98762e-07
4.6667e-07
4.5428e-07
4.49542e-07
4.47829e-07
4.47267e-07
4.47113e-07
4.47084e-07
4.47086e-07
4.47091e-07
4.47095e-07
4.47095e-07
4.47093e-07
4.47089e-07
4.47089e-07
4.47121e-07
4.4728e-07
4.47848e-07
4.49571e-07
4.5432e-07
4.6672e-07
4.98814e-07
5.87294e-07
8.87209e-07
2.47006e-06
1.63853e-05
1.73348e-05
2.60292e-06
9.20195e-07
6.00318e-07
5.04945e-07
4.69747e-07
4.55794e-07
4.5026e-07
4.48153e-07
4.47406e-07
4.47169e-07
4.47105e-07
4.47093e-07
4.47092e-07
4.47093e-07
4.47094e-07
4.47093e-07
4.47095e-07
4.47109e-07
4.47176e-07
4.47418e-07
4.48171e-07
4.50288e-07
4.55835e-07
4.69802e-07
5.05008e-07
6.00369e-07
9.20158e-07
2.60211e-06
1.73284e-05
1.86975e-05
2.79348e-06
9.6718e-07
6.18655e-07
5.13635e-07
4.74124e-07
4.58021e-07
4.51379e-07
4.48707e-07
4.4768e-07
4.47308e-07
4.4718e-07
4.47136e-07
4.47121e-07
4.47116e-07
4.47117e-07
4.47122e-07
4.47138e-07
4.47182e-07
4.47312e-07
4.47688e-07
4.48721e-07
4.51403e-07
4.58059e-07
4.74179e-07
5.13706e-07
6.18722e-07
9.67156e-07
2.7926e-06
1.86904e-05
2.05889e-05
3.05771e-06
1.03135e-06
6.43366e-07
5.25121e-07
4.80079e-07
4.61263e-07
4.53173e-07
4.49721e-07
4.48279e-07
4.47685e-07
4.47437e-07
4.47328e-07
4.47278e-07
4.47258e-07
4.47258e-07
4.47279e-07
4.4733e-07
4.47438e-07
4.47685e-07
4.48281e-07
4.49727e-07
4.53187e-07
4.61291e-07
4.80127e-07
5.2519e-07
6.43446e-07
1.03134e-06
3.05678e-06
2.05811e-05
2.318e-05
3.41926e-06
1.11728e-06
6.75742e-07
5.39206e-07
4.88418e-07
4.66262e-07
4.5628e-07
4.51756e-07
4.49696e-07
4.48734e-07
4.48262e-07
4.48013e-07
4.47881e-07
4.47822e-07
4.47823e-07
4.47883e-07
4.48016e-07
4.48263e-07
4.48733e-07
4.49692e-07
4.51752e-07
4.5628e-07
4.66274e-07
4.88448e-07
5.39255e-07
6.75827e-07
1.1173e-06
3.41831e-06
2.31714e-05
2.67344e-05
3.91459e-06
1.23271e-06
7.19843e-07
5.62168e-07
5.01573e-07
4.74642e-07
4.62132e-07
4.56138e-07
4.53149e-07
4.51569e-07
4.5067e-07
4.50131e-07
4.49816e-07
4.49668e-07
4.4967e-07
4.49821e-07
4.50138e-07
4.50675e-07
4.51569e-07
4.53142e-07
4.56125e-07
4.62116e-07
4.74632e-07
5.01579e-07
5.62198e-07
7.19924e-07
1.23278e-06
3.91374e-06
2.67252e-05
3.16142e-05
4.60563e-06
1.393e-06
7.81873e-07
5.95536e-07
5.22229e-07
4.89563e-07
4.73986e-07
4.65985e-07
4.61555e-07
4.58899e-07
4.57187e-07
4.56056e-07
4.55353e-07
4.55015e-07
4.55019e-07
4.55364e-07
4.56071e-07
4.57201e-07
4.58907e-07
4.61551e-07
4.65969e-07
4.73957e-07
4.89529e-07
5.22202e-07
5.95535e-07
7.81928e-07
1.39309e-06
4.60504e-06
3.16062e-05
3.86106e-05
5.62994e-06
1.63628e-06
8.76433e-07
6.47466e-07
5.58596e-07
5.19545e-07
5.00017e-07
4.88836e-07
4.81922e-07
4.77275e-07
4.73961e-07
4.71629e-07
4.7013e-07
4.69397e-07
4.69403e-07
4.70149e-07
4.71657e-07
4.73992e-07
4.77301e-07
4.81933e-07
4.8883e-07
4.99987e-07
5.19494e-07
5.5854e-07
6.47418e-07
8.76436e-07
1.63636e-06
5.62958e-06
3.86028e-05
4.92081e-05
7.28879e-06
2.05415e-06
1.03764e-06
7.44687e-07
6.36868e-07
5.88803e-07
5.61967e-07
5.44099e-07
5.32376e-07
5.23607e-07
5.16877e-07
5.12009e-07
5.08844e-07
5.07287e-07
5.07298e-07
5.08875e-07
5.12057e-07
5.16935e-07
5.23664e-07
5.32414e-07
5.44124e-07
5.61964e-07
5.88759e-07
6.36786e-07
7.44594e-07
1.0376e-06
2.05429e-06
7.28903e-06
4.92015e-05
6.66891e-05
1.03393e-05
2.85007e-06
1.38561e-06
9.88458e-07
8.48756e-07
7.77867e-07
7.31174e-07
6.96697e-07
6.70495e-07
6.50325e-07
6.35075e-07
6.24112e-07
6.17019e-07
6.13541e-07
6.13556e-07
6.17062e-07
6.24182e-07
6.35168e-07
6.50432e-07
6.70605e-07
6.96796e-07
7.31245e-07
7.77887e-07
8.48709e-07
9.88369e-07
1.38559e-06
2.85049e-06
1.03411e-05
6.66855e-05
0.000100312
1.54328e-05
5.15734e-06
2.5597e-06
1.90885e-06
1.6242e-06
1.44584e-06
1.31706e-06
1.21912e-06
1.14407e-06
1.08689e-06
1.04414e-06
1.01366e-06
9.94081e-07
9.84513e-07
9.84528e-07
9.94127e-07
1.01374e-06
1.04425e-06
1.08703e-06
1.14425e-06
1.21932e-06
1.31726e-06
1.44603e-06
1.62434e-06
1.90895e-06
2.55996e-06
5.15866e-06
1.54373e-05
0.000100316
0.000151179
3.2652e-05
1.39596e-05
9.32634e-06
7.19306e-06
5.96023e-06
5.12208e-06
4.50959e-06
4.05077e-06
3.70724e-06
3.45006e-06
3.26026e-06
3.12667e-06
3.04164e-06
3.00028e-06
3.00025e-06
3.04153e-06
3.1265e-06
3.26004e-06
3.44984e-06
3.70708e-06
4.05063e-06
4.5095e-06
5.12212e-06
5.96044e-06
7.19359e-06
9.32763e-06
1.39622e-05
3.26579e-05
0.000151193
0.00152962
0.000225064
0.000110948
7.00758e-05
5.19715e-05
4.16775e-05
3.49725e-05
3.03341e-05
2.70015e-05
2.4561e-05
2.27469e-05
2.14167e-05
2.04873e-05
1.98984e-05
1.96125e-05
1.9612e-05
1.98971e-05
2.04852e-05
2.14137e-05
2.27433e-05
2.45573e-05
2.69974e-05
3.03297e-05
3.49678e-05
4.16729e-05
5.19673e-05
7.00735e-05
0.000110951
0.00022508
0.00152975
0.0011155
0.000167876
8.86761e-05
5.8727e-05
4.55973e-05
3.79078e-05
3.278e-05
2.91257e-05
2.64254e-05
2.44239e-05
2.29775e-05
2.19436e-05
2.12197e-05
2.07582e-05
2.05333e-05
2.05331e-05
2.07576e-05
2.12186e-05
2.1942e-05
2.29752e-05
2.44211e-05
2.64218e-05
2.91209e-05
3.2772e-05
3.78973e-05
4.55844e-05
5.8712e-05
8.86586e-05
0.000167853
0.00111539
0.000106281
3.04975e-05
2.01958e-05
1.42362e-05
1.14343e-05
9.61306e-06
8.27403e-06
7.28142e-06
6.5177e-06
5.93435e-06
5.50206e-06
5.19194e-06
4.97806e-06
4.84342e-06
4.77829e-06
4.77812e-06
4.84293e-06
4.97727e-06
5.19086e-06
5.5007e-06
5.93273e-06
6.51579e-06
7.27903e-06
8.27088e-06
9.60897e-06
1.14304e-05
1.42332e-05
2.01953e-05
3.04962e-05
0.000106274
8.34882e-05
2.20138e-05
1.12986e-05
5.82849e-06
3.74569e-06
2.88332e-06
2.40724e-06
2.08513e-06
1.85151e-06
1.67935e-06
1.55472e-06
1.46604e-06
1.40543e-06
1.36769e-06
1.34972e-06
1.34968e-06
1.36759e-06
1.40531e-06
1.46589e-06
1.55456e-06
1.67915e-06
1.85129e-06
2.08481e-06
2.40667e-06
2.88246e-06
3.74463e-06
5.82747e-06
1.12984e-05
2.20139e-05
8.34817e-05
5.74535e-05
1.60798e-05
6.50901e-06
2.84675e-06
1.59217e-06
1.16551e-06
9.83761e-07
8.79685e-07
8.07827e-07
7.54957e-07
7.16155e-07
6.88216e-07
6.68924e-07
6.5684e-07
6.51039e-07
6.5104e-07
6.56844e-07
6.68933e-07
6.88234e-07
7.16185e-07
7.54997e-07
8.07859e-07
8.7969e-07
9.83706e-07
1.16537e-06
1.59183e-06
2.84618e-06
6.50846e-06
1.60787e-05
5.74475e-05
4.44742e-05
1.14867e-05
4.09708e-06
1.70726e-06
9.70827e-07
7.12907e-07
6.08688e-07
5.57099e-07
5.24601e-07
5.00425e-07
4.82878e-07
4.70466e-07
4.61934e-07
4.56735e-07
4.54309e-07
4.54318e-07
4.56758e-07
4.61958e-07
4.70498e-07
4.82921e-07
5.00478e-07
5.24645e-07
5.57127e-07
6.08689e-07
7.1286e-07
9.70696e-07
1.70695e-06
4.09651e-06
1.14851e-05
4.44693e-05
3.64211e-05
8.71038e-06
2.82313e-06
1.21158e-06
7.30843e-07
5.54943e-07
4.77127e-07
4.40871e-07
4.21165e-07
4.0847e-07
3.99646e-07
3.93465e-07
3.89251e-07
3.86649e-07
3.85422e-07
3.85431e-07
3.86674e-07
3.89287e-07
3.93509e-07
3.99695e-07
4.08519e-07
4.21203e-07
4.40889e-07
4.77125e-07
5.54912e-07
7.30765e-07
1.2114e-06
2.82256e-06
8.7084e-06
3.64184e-05
3.08739e-05
6.97305e-06
2.12679e-06
9.56262e-07
6.13147e-07
4.79955e-07
4.21596e-07
3.93386e-07
3.78593e-07
3.70037e-07
3.64642e-07
3.61088e-07
3.58755e-07
3.57336e-07
3.56669e-07
3.56676e-07
3.57355e-07
3.58784e-07
3.61123e-07
3.64677e-07
3.70066e-07
3.7861e-07
3.93383e-07
4.21575e-07
4.79921e-07
6.13085e-07
9.56112e-07
2.12625e-06
6.97157e-06
3.08724e-05
2.69636e-05
5.84368e-06
1.72654e-06
8.11613e-07
5.45864e-07
4.40531e-07
3.9378e-07
3.70813e-07
3.58902e-07
3.52404e-07
3.48653e-07
3.46385e-07
3.44992e-07
3.44178e-07
3.43804e-07
3.43809e-07
3.44192e-07
3.45011e-07
3.46407e-07
3.48673e-07
3.52417e-07
3.58904e-07
3.708e-07
3.93751e-07
4.40486e-07
5.45798e-07
8.11472e-07
1.72604e-06
5.84242e-06
2.69632e-05
2.42154e-05
5.08507e-06
1.483e-06
7.24168e-07
5.03774e-07
4.17042e-07
3.78111e-07
3.58947e-07
3.4911e-07
3.43931e-07
3.41131e-07
3.3957e-07
3.38685e-07
3.38198e-07
3.37982e-07
3.37986e-07
3.38207e-07
3.38696e-07
3.39583e-07
3.41141e-07
3.43935e-07
3.49104e-07
3.5893e-07
3.78082e-07
4.16998e-07
5.03707e-07
7.24036e-07
1.4826e-06
5.08396e-06
2.42158e-05
2.21743e-05
4.55649e-06
1.32578e-06
6.67611e-07
4.74624e-07
4.01603e-07
3.6847e-07
3.52201e-07
3.43958e-07
3.39737e-07
3.37561e-07
3.36427e-07
3.3583e-07
3.35524e-07
3.35394e-07
3.35396e-07
3.35529e-07
3.35836e-07
3.36433e-07
3.37564e-07
3.39736e-07
3.4395e-07
3.52184e-07
3.68441e-07
4.01556e-07
4.74543e-07
6.67467e-07
1.32524e-06
4.55543e-06
2.21752e-05
2.06523e-05
4.1808e-06
1.21989e-06
6.2968e-07
4.56725e-07
3.91528e-07
3.62304e-07
3.4815e-07
3.41108e-07
3.37596e-07
3.35852e-07
3.34989e-07
3.34562e-07
3.34356e-07
3.34272e-07
3.34273e-07
3.34359e-07
3.34566e-07
3.34992e-07
3.35853e-07
3.37592e-07
3.41099e-07
3.48132e-07
3.62274e-07
3.91477e-07
4.56635e-07
6.29529e-07
1.21935e-06
4.1798e-06
2.06536e-05
1.95356e-05
3.91462e-06
1.14727e-06
6.03536e-07
4.44698e-07
3.84839e-07
3.58284e-07
3.4563e-07
3.39462e-07
3.36461e-07
3.35017e-07
3.34329e-07
3.34004e-07
3.33853e-07
3.33794e-07
3.33794e-07
3.33854e-07
3.34005e-07
3.3433e-07
3.35016e-07
3.36457e-07
3.39452e-07
3.45611e-07
3.58251e-07
3.84782e-07
4.446e-07
6.03382e-07
1.14678e-06
3.91375e-06
1.95373e-05
1.87507e-05
3.73203e-06
1.09832e-06
5.85694e-07
4.3655e-07
3.80383e-07
3.55666e-07
3.4405e-07
3.38489e-07
3.3584e-07
3.34597e-07
3.3402e-07
3.33754e-07
3.33634e-07
3.33587e-07
3.33587e-07
3.33634e-07
3.33754e-07
3.34019e-07
3.34594e-07
3.35834e-07
3.38477e-07
3.44028e-07
3.55628e-07
3.80318e-07
4.36441e-07
5.85523e-07
1.09785e-06
3.73128e-06
1.87527e-05
1.82503e-05
3.6176e-06
1.06796e-06
5.74409e-07
4.31412e-07
3.77606e-07
3.54064e-07
3.43108e-07
3.37932e-07
3.35505e-07
3.34384e-07
3.33873e-07
3.3364e-07
3.33536e-07
3.33496e-07
3.33496e-07
3.33536e-07
3.3364e-07
3.33871e-07
3.3438e-07
3.35496e-07
3.37917e-07
3.43081e-07
3.54019e-07
3.77533e-07
4.31294e-07
5.74234e-07
1.06752e-06
3.61697e-06
1.82527e-05
1.80067e-05
3.56246e-06
1.05341e-06
5.68969e-07
4.28919e-07
3.76262e-07
3.53295e-07
3.42663e-07
3.37674e-07
3.35354e-07
3.34292e-07
3.33811e-07
3.33594e-07
3.33496e-07
3.33459e-07
3.33459e-07
3.33496e-07
3.33593e-07
3.33808e-07
3.34286e-07
3.35343e-07
3.37655e-07
3.4263e-07
3.53242e-07
3.7618e-07
4.28792e-07
5.68791e-07
1.05299e-06
3.56198e-06
1.80094e-05
1.80069e-05
3.56268e-06
1.05347e-06
5.68979e-07
4.28915e-07
3.76256e-07
3.53288e-07
3.42658e-07
3.37671e-07
3.35352e-07
3.3429e-07
3.33809e-07
3.33592e-07
3.33494e-07
3.33456e-07
3.33456e-07
3.33493e-07
3.3359e-07
3.33805e-07
3.34282e-07
3.35337e-07
3.37647e-07
3.42619e-07
3.53227e-07
3.76162e-07
4.28777e-07
5.68794e-07
1.05306e-06
3.56233e-06
1.801e-05
1.82512e-05
3.61828e-06
1.06815e-06
5.74439e-07
4.31402e-07
3.77587e-07
3.54046e-07
3.43095e-07
3.37924e-07
3.35499e-07
3.3438e-07
3.33868e-07
3.33634e-07
3.33529e-07
3.33488e-07
3.33487e-07
3.33528e-07
3.33632e-07
3.33863e-07
3.3437e-07
3.35482e-07
3.37895e-07
3.43049e-07
3.53975e-07
3.77481e-07
4.31249e-07
5.74241e-07
1.06775e-06
3.61804e-06
1.82546e-05
1.87521e-05
3.73316e-06
1.09863e-06
5.85739e-07
4.36531e-07
3.80352e-07
3.55641e-07
3.44034e-07
3.3848e-07
3.35836e-07
3.34593e-07
3.34014e-07
3.33746e-07
3.33623e-07
3.33574e-07
3.33574e-07
3.33622e-07
3.33743e-07
3.34009e-07
3.34582e-07
3.35817e-07
3.38448e-07
3.43982e-07
3.55561e-07
3.80234e-07
4.36363e-07
5.85526e-07
1.09822e-06
3.73305e-06
1.87561e-05
1.95377e-05
3.9162e-06
1.14768e-06
6.03579e-07
4.44667e-07
3.84802e-07
3.58259e-07
3.4562e-07
3.39461e-07
3.36464e-07
3.35018e-07
3.34326e-07
3.33994e-07
3.33839e-07
3.33777e-07
3.33776e-07
3.33839e-07
3.33993e-07
3.34321e-07
3.35009e-07
3.36445e-07
3.39428e-07
3.45565e-07
3.58174e-07
3.84673e-07
4.44486e-07
6.03368e-07
1.14727e-06
3.91621e-06
1.95423e-05
2.06552e-05
4.1828e-06
1.2204e-06
6.29728e-07
4.56691e-07
3.91498e-07
3.62295e-07
3.48159e-07
3.41127e-07
3.37614e-07
3.35864e-07
3.34991e-07
3.34554e-07
3.3434e-07
3.34252e-07
3.34252e-07
3.34341e-07
3.34555e-07
3.3499e-07
3.35858e-07
3.376e-07
3.41098e-07
3.48107e-07
3.62209e-07
3.91364e-07
4.56496e-07
6.29495e-07
1.21996e-06
4.18292e-06
2.06604e-05
2.21782e-05
4.55885e-06
1.32636e-06
6.67669e-07
4.74608e-07
4.01605e-07
3.685e-07
3.52251e-07
3.44012e-07
3.39783e-07
3.37592e-07
3.3644e-07
3.35827e-07
3.35508e-07
3.35371e-07
3.35372e-07
3.35511e-07
3.3583e-07
3.36443e-07
3.37592e-07
3.39777e-07
3.43993e-07
3.5221e-07
3.68425e-07
4.01478e-07
4.7441e-07
6.67411e-07
1.32588e-06
4.55906e-06
2.21841e-05
2.42205e-05
5.08774e-06
1.48364e-06
7.24259e-07
5.03824e-07
4.17113e-07
3.78212e-07
3.5906e-07
3.49216e-07
3.44017e-07
3.41189e-07
3.39601e-07
3.38691e-07
3.38188e-07
3.37962e-07
3.37963e-07
3.38191e-07
3.38697e-07
3.39609e-07
3.41198e-07
3.44023e-07
3.49215e-07
3.59041e-07
3.78161e-07
4.17013e-07
5.03662e-07
7.23984e-07
1.48312e-06
5.08797e-06
2.42273e-05
2.69702e-05
5.84664e-06
1.72727e-06
8.11773e-07
5.45993e-07
4.40702e-07
3.93981e-07
3.71014e-07
3.59078e-07
3.5254e-07
3.48748e-07
3.46442e-07
3.45017e-07
3.44181e-07
3.43794e-07
3.43795e-07
3.44185e-07
3.45024e-07
3.46453e-07
3.48763e-07
3.5256e-07
3.59098e-07
3.71027e-07
3.9397e-07
4.40646e-07
5.45865e-07
8.11497e-07
1.72668e-06
5.84666e-06
2.69777e-05
3.08822e-05
6.97623e-06
2.12764e-06
9.56535e-07
6.13385e-07
4.80243e-07
4.21921e-07
3.93694e-07
3.78851e-07
3.70233e-07
3.64784e-07
3.61186e-07
3.58817e-07
3.57373e-07
3.5669e-07
3.56691e-07
3.57374e-07
3.5882e-07
3.61193e-07
3.648e-07
3.70261e-07
3.78892e-07
3.93743e-07
4.21967e-07
4.80264e-07
6.13331e-07
9.56308e-07
2.127e-06
6.97576e-06
3.08871e-05
3.64311e-05
8.71371e-06
2.82395e-06
1.21205e-06
7.31298e-07
5.55398e-07
4.77567e-07
4.41294e-07
4.21507e-07
4.08733e-07
3.99859e-07
3.93639e-07
3.8939e-07
3.86764e-07
3.8552e-07
3.85517e-07
3.86755e-07
3.89377e-07
3.93626e-07
3.99857e-07
4.08752e-07
4.21552e-07
4.41369e-07
4.77668e-07
5.55504e-07
7.31356e-07
1.21193e-06
2.82337e-06
8.7129e-06
3.64362e-05
4.44863e-05
1.14877e-05
4.09753e-06
1.70822e-06
9.71663e-07
7.13635e-07
6.09274e-07
5.57599e-07
5.25001e-07
5.00748e-07
4.83218e-07
4.70789e-07
4.62241e-07
4.57025e-07
4.54584e-07
4.54574e-07
4.56996e-07
4.62189e-07
4.70726e-07
4.83158e-07
5.00718e-07
5.24996e-07
5.57643e-07
6.09379e-07
7.1381e-07
9.7187e-07
1.70828e-06
4.09692e-06
1.14863e-05
4.44929e-05
5.74608e-05
1.60752e-05
6.50794e-06
2.84799e-06
1.59399e-06
1.16673e-06
9.84743e-07
8.80501e-07
8.08538e-07
7.55635e-07
7.16788e-07
6.88828e-07
6.6956e-07
6.575e-07
6.51692e-07
6.51671e-07
6.57438e-07
6.69459e-07
6.887e-07
7.16639e-07
7.55475e-07
8.08394e-07
8.80403e-07
9.84731e-07
1.16686e-06
1.59428e-06
2.8481e-06
6.50717e-06
1.60717e-05
5.74646e-05
8.34738e-05
2.2001e-05
1.12943e-05
5.82866e-06
3.74748e-06
2.88543e-06
2.40956e-06
2.08747e-06
1.8539e-06
1.68177e-06
1.55666e-06
1.46808e-06
1.40796e-06
1.37063e-06
1.3527e-06
1.35263e-06
1.37043e-06
1.40764e-06
1.4677e-06
1.55622e-06
1.68113e-06
1.85318e-06
2.08671e-06
2.40873e-06
2.88463e-06
3.7469e-06
5.82807e-06
1.1293e-05
2.19963e-05
8.34693e-05
0.000106267
3.04823e-05
2.01883e-05
1.42324e-05
1.14339e-05
9.61575e-06
8.27823e-06
7.28648e-06
6.52351e-06
5.9408e-06
5.50868e-06
5.19875e-06
4.98525e-06
4.85097e-06
4.78604e-06
4.78596e-06
4.85072e-06
4.98484e-06
5.19816e-06
5.50783e-06
5.93958e-06
6.52207e-06
7.2847e-06
8.27582e-06
9.61216e-06
1.143e-05
1.42279e-05
2.01834e-05
3.04714e-05
0.000106245
0.00111518
0.000167811
8.86573e-05
5.87242e-05
4.56026e-05
3.79166e-05
3.27896e-05
2.91337e-05
2.6433e-05
2.44309e-05
2.29833e-05
2.1949e-05
2.12249e-05
2.07636e-05
2.0539e-05
2.05392e-05
2.07643e-05
2.12261e-05
2.19505e-05
2.2985e-05
2.44316e-05
2.64335e-05
2.91341e-05
3.27899e-05
3.79157e-05
4.55996e-05
5.87179e-05
8.86442e-05
0.00016778
0.00111496
0.000953909
0.000141079
7.59832e-05
5.11251e-05
4.01593e-05
3.36394e-05
2.92157e-05
2.60912e-05
2.38269e-05
2.21469e-05
2.08788e-05
1.99398e-05
1.92812e-05
1.88629e-05
1.86601e-05
1.8661e-05
1.88657e-05
1.92859e-05
1.99463e-05
2.08872e-05
2.21571e-05
2.38387e-05
2.61046e-05
2.92315e-05
3.36559e-05
4.01746e-05
5.11359e-05
7.59834e-05
0.000141044
0.000953558
9.33087e-05
3.4086e-05
2.22309e-05
1.67408e-05
1.4122e-05
1.25486e-05
1.13501e-05
1.03258e-05
9.43858e-06
8.69326e-06
8.09227e-06
7.63124e-06
7.30037e-06
7.08792e-06
6.9844e-06
6.98488e-06
7.08932e-06
7.30255e-06
7.63394e-06
8.09524e-06
8.69621e-06
9.44127e-06
1.03278e-05
1.13508e-05
1.25474e-05
1.41182e-05
1.67337e-05
2.22196e-05
3.40485e-05
9.32536e-05
7.32431e-05
2.24594e-05
1.35132e-05
8.50784e-06
6.05945e-06
4.78359e-06
4.01385e-06
3.47438e-06
3.06332e-06
2.74397e-06
2.49885e-06
2.3181e-06
2.19218e-06
2.11292e-06
2.07458e-06
2.07458e-06
2.11291e-06
2.19207e-06
2.31782e-06
2.4983e-06
2.74304e-06
3.06182e-06
3.47205e-06
4.01132e-06
4.78124e-06
6.05727e-06
8.505e-06
1.35064e-05
2.24439e-05
7.32211e-05
5.0467e-05
1.79689e-05
9.31329e-06
4.90507e-06
2.7976e-06
1.87506e-06
1.46396e-06
1.24227e-06
1.09916e-06
9.95205e-07
9.17346e-07
8.60542e-07
8.21217e-07
7.96523e-07
7.84603e-07
7.84552e-07
7.96366e-07
8.20949e-07
8.60146e-07
9.16813e-07
9.94542e-07
1.09839e-06
1.24117e-06
1.46314e-06
1.8749e-06
2.79803e-06
4.90431e-06
9.30822e-06
1.79579e-05
5.04616e-05
3.89303e-05
1.38313e-05
6.58613e-06
3.01754e-06
1.50104e-06
9.36392e-07
7.16624e-07
6.1607e-07
5.60617e-07
5.23378e-07
4.96381e-07
4.7686e-07
4.63277e-07
4.54302e-07
4.4976e-07
4.49715e-07
4.54175e-07
4.63109e-07
4.76642e-07
4.96126e-07
5.23115e-07
5.60376e-07
6.15914e-07
7.16702e-07
9.36802e-07
1.50176e-06
3.01718e-06
6.58238e-06
1.38257e-05
3.89362e-05
3.19598e-05
1.13013e-05
4.70513e-06
1.96015e-06
9.69352e-07
6.19171e-07
4.83521e-07
4.20657e-07
3.87972e-07
3.68419e-07
3.55291e-07
3.4613e-07
3.39998e-07
3.36208e-07
3.34345e-07
3.3431e-07
3.36111e-07
3.39861e-07
3.45985e-07
3.55147e-07
3.68303e-07
3.87921e-07
4.20717e-07
4.83711e-07
6.19497e-07
9.69659e-07
1.95967e-06
4.70279e-06
1.13001e-05
3.19693e-05
2.73519e-05
9.47157e-06
3.48022e-06
1.38152e-06
7.1782e-07
4.86267e-07
3.88006e-07
3.43279e-07
3.21622e-07
3.09717e-07
3.02397e-07
2.97583e-07
2.94425e-07
2.92501e-07
2.91573e-07
2.91551e-07
2.92441e-07
2.94341e-07
2.97497e-07
3.02329e-07
3.09691e-07
3.21665e-07
3.43407e-07
3.88185e-07
4.86444e-07
7.17884e-07
1.381e-06
3.479e-06
9.47289e-06
2.73628e-05
2.4097e-05
8.08111e-06
2.70828e-06
1.0672e-06
5.85457e-07
4.15067e-07
3.42394e-07
3.09517e-07
2.93277e-07
2.84672e-07
2.79763e-07
2.76785e-07
2.7494e-07
2.73853e-07
2.73341e-07
2.73328e-07
2.73819e-07
2.74894e-07
2.76743e-07
2.79741e-07
2.84685e-07
2.93338e-07
3.09622e-07
3.4252e-07
4.15158e-07
5.85432e-07
1.06694e-06
2.70807e-06
8.08413e-06
2.41076e-05
2.16779e-05
7.00549e-06
2.21424e-06
8.82782e-07
5.09951e-07
3.74055e-07
3.18259e-07
2.92506e-07
2.79659e-07
2.72947e-07
2.69296e-07
2.67233e-07
2.66042e-07
2.65378e-07
2.65075e-07
2.65068e-07
2.65359e-07
2.66019e-07
2.67215e-07
2.69293e-07
2.72966e-07
2.79702e-07
2.92564e-07
3.18311e-07
3.74067e-07
5.09889e-07
8.82627e-07
2.21455e-06
7.00953e-06
2.16877e-05
1.98973e-05
6.19124e-06
1.88709e-06
7.68033e-07
4.60668e-07
3.49104e-07
3.04092e-07
2.8309e-07
2.72579e-07
2.6714e-07
2.64271e-07
2.62734e-07
2.61902e-07
2.61466e-07
2.61275e-07
2.61271e-07
2.61456e-07
2.6189e-07
2.62725e-07
2.6427e-07
2.67149e-07
2.72595e-07
2.83103e-07
3.04086e-07
3.49062e-07
4.60604e-07
7.67965e-07
1.88791e-06
6.19595e-06
1.99061e-05
1.85863e-05
5.58984e-06
1.66612e-06
6.94322e-07
4.28346e-07
3.33769e-07
2.95419e-07
2.77576e-07
2.68696e-07
2.64156e-07
2.61815e-07
2.60608e-07
2.59989e-07
2.5968e-07
2.59551e-07
2.59549e-07
2.59674e-07
2.5998e-07
2.60601e-07
2.6181e-07
2.64151e-07
2.68689e-07
2.77558e-07
2.95381e-07
3.33711e-07
4.283e-07
6.94325e-07
1.66717e-06
5.59484e-06
1.8594e-05
1.76347e-05
5.15892e-06
1.51812e-06
6.4611e-07
4.07259e-07
3.23931e-07
2.89984e-07
2.74252e-07
2.66494e-07
2.6258e-07
2.60602e-07
2.5961e-07
2.59119e-07
2.58885e-07
2.58789e-07
2.58788e-07
2.58879e-07
2.59112e-07
2.59601e-07
2.60591e-07
2.62565e-07
2.66472e-07
2.74218e-07
2.89937e-07
3.23877e-07
4.07237e-07
6.4615e-07
1.51891e-06
5.16371e-06
1.76413e-05
1.69713e-05
4.86455e-06
1.42238e-06
6.15226e-07
3.93711e-07
3.17647e-07
2.86585e-07
2.72244e-07
2.65233e-07
2.61739e-07
2.60001e-07
2.59146e-07
2.58732e-07
2.58539e-07
2.58463e-07
2.58461e-07
2.58535e-07
2.58724e-07
2.59135e-07
2.59986e-07
2.61718e-07
2.65205e-07
2.72206e-07
2.8654e-07
3.17607e-07
3.93714e-07
6.15314e-07
1.42316e-06
4.86896e-06
1.69767e-05
1.65514e-05
4.68193e-06
1.36449e-06
5.96926e-07
3.8563e-07
3.13902e-07
2.84589e-07
2.71096e-07
2.64542e-07
2.61304e-07
2.59711e-07
2.58937e-07
2.58567e-07
2.58396e-07
2.58329e-07
2.58328e-07
2.58392e-07
2.58559e-07
2.58925e-07
2.59695e-07
2.61283e-07
2.64514e-07
2.71062e-07
2.84552e-07
3.13877e-07
3.85649e-07
5.97023e-07
1.36521e-06
4.68575e-06
1.65556e-05
1.63486e-05
4.59691e-06
1.33762e-06
5.88411e-07
3.81868e-07
3.12164e-07
2.83673e-07
2.7058e-07
2.6424e-07
2.61123e-07
2.59596e-07
2.58859e-07
2.58509e-07
2.58348e-07
2.58285e-07
2.58284e-07
2.58344e-07
2.58502e-07
2.58849e-07
2.59582e-07
2.61104e-07
2.64217e-07
2.70553e-07
2.83647e-07
3.12152e-07
3.81894e-07
5.88488e-07
1.33813e-06
4.59938e-06
1.63514e-05
1.63473e-05
4.59646e-06
1.3376e-06
5.88445e-07
3.81906e-07
3.12201e-07
2.83702e-07
2.70602e-07
2.64255e-07
2.61133e-07
2.59605e-07
2.58867e-07
2.58517e-07
2.58357e-07
2.58294e-07
2.58293e-07
2.58354e-07
2.58511e-07
2.58859e-07
2.59594e-07
2.6112e-07
2.64239e-07
2.70584e-07
2.83689e-07
3.12202e-07
3.81942e-07
5.88521e-07
1.33808e-06
4.59865e-06
1.63494e-05
1.65473e-05
4.68009e-06
1.36437e-06
5.97022e-07
3.85745e-07
3.14013e-07
2.84675e-07
2.71157e-07
2.64584e-07
2.61335e-07
2.59736e-07
2.5896e-07
2.58591e-07
2.58423e-07
2.58357e-07
2.58356e-07
2.5842e-07
2.58587e-07
2.58955e-07
2.59729e-07
2.61328e-07
2.64576e-07
2.7115e-07
2.84673e-07
3.14025e-07
3.85789e-07
5.97108e-07
1.36492e-06
4.68278e-06
1.65493e-05
1.69642e-05
4.86141e-06
1.42218e-06
6.15394e-07
3.93908e-07
3.1783e-07
2.86722e-07
2.72337e-07
2.65296e-07
2.61784e-07
2.60039e-07
2.59184e-07
2.58775e-07
2.58586e-07
2.58512e-07
2.58511e-07
2.58584e-07
2.58772e-07
2.59182e-07
2.60037e-07
2.61784e-07
2.65297e-07
2.72341e-07
2.8673e-07
3.17851e-07
3.93953e-07
6.15465e-07
1.42268e-06
4.86394e-06
1.69661e-05
1.76245e-05
5.15459e-06
1.51789e-06
6.46389e-07
4.07547e-07
3.24179e-07
2.90157e-07
2.74362e-07
2.66565e-07
2.62632e-07
2.60651e-07
2.59664e-07
2.59182e-07
2.58956e-07
2.58866e-07
2.58866e-07
2.58954e-07
2.5918e-07
2.59663e-07
2.60652e-07
2.62637e-07
2.66574e-07
2.74376e-07
2.90175e-07
3.24204e-07
4.07581e-07
6.46396e-07
1.51827e-06
5.15677e-06
1.76261e-05
1.8573e-05
5.58448e-06
1.66589e-06
6.94733e-07
4.28723e-07
3.3406e-07
2.95598e-07
2.77676e-07
2.68756e-07
2.64203e-07
2.6187e-07
2.6068e-07
2.60079e-07
2.59786e-07
2.59665e-07
2.59664e-07
2.59781e-07
2.60073e-07
2.60676e-07
2.61872e-07
2.64212e-07
2.68773e-07
2.77701e-07
2.95627e-07
3.34089e-07
4.28747e-07
6.9469e-07
1.66622e-06
5.5863e-06
1.85743e-05
1.98808e-05
6.18527e-06
1.88705e-06
7.686e-07
4.61101e-07
3.49381e-07
3.04226e-07
2.83142e-07
2.72603e-07
2.67171e-07
2.6433e-07
2.62827e-07
2.62029e-07
2.61618e-07
2.6144e-07
2.61436e-07
2.61608e-07
2.62017e-07
2.62817e-07
2.64327e-07
2.6718e-07
2.72626e-07
2.83178e-07
3.04268e-07
3.49417e-07
4.61112e-07
7.68487e-07
1.8871e-06
6.18656e-06
1.98818e-05
2.16581e-05
6.99938e-06
2.21454e-06
8.83491e-07
5.10311e-07
3.74203e-07
3.18276e-07
2.92464e-07
2.79622e-07
2.72954e-07
2.69363e-07
2.6736e-07
2.66222e-07
2.65594e-07
2.6531e-07
2.65303e-07