/*--------------------------------*- C++ -*----------------------------------*\
| =========                 |                                                 |
| \\      /  F ield         | OpenFOAM: The Open Source CFD Toolbox           |
|  \\    /   O peration     | Version:  2312                                  |
|   \\  /    A nd           | Website:  www.openfoam.com                      |
|    \\/     M anipulation  |                                                 |
\*---------------------------------------------------------------------------*/
FoamFile
{
    version     2.0;
    format      ascii;
    arch        "LSB;label=32;scalar=64";
    class       volScalarField;
    location    "350";
    object      k;
}
// * * * * * * * * * * * * * * * * * * * * * * * * * * * * * * * * * * * * * //

dimensions      [0 2 -2 0 0 0 0];

internalField   nonuniform List<scalar> 
27000
(
0.000259162
0.000129498
0.000107433
9.56012e-05
9.00611e-05
8.66123e-05
8.39901e-05
8.17007e-05
7.97963e-05
7.82473e-05
7.69606e-05
7.59267e-05
7.51611e-05
7.46569e-05
7.44068e-05
7.44067e-05
7.46568e-05
7.5161e-05
7.59267e-05
7.69609e-05
7.82475e-05
7.97969e-05
8.17019e-05
8.39919e-05
8.66149e-05
9.00642e-05
9.56052e-05
0.000107438
0.000129507
0.000259177
9.83011e-05
2.15603e-05
2.8289e-05
3.06711e-05
3.24338e-05
3.35939e-05
3.43281e-05
3.47601e-05
3.49901e-05
3.5123e-05
3.5207e-05
3.52613e-05
3.52963e-05
3.53174e-05
3.53276e-05
3.53278e-05
3.53181e-05
3.52974e-05
3.52629e-05
3.52091e-05
3.51255e-05
3.4993e-05
3.47635e-05
3.43318e-05
3.35978e-05
3.2438e-05
3.06753e-05
2.82924e-05
2.15632e-05
9.83063e-05
0.000101413
3.49901e-05
2.88353e-05
2.72639e-05
2.79651e-05
2.88863e-05
2.96713e-05
3.03236e-05
3.08275e-05
3.12111e-05
3.15037e-05
3.17231e-05
3.18799e-05
3.1981e-05
3.20308e-05
3.2031e-05
3.19817e-05
3.1881e-05
3.17246e-05
3.15055e-05
3.12131e-05
3.08296e-05
3.03259e-05
2.96733e-05
2.88876e-05
2.79662e-05
2.72653e-05
2.88387e-05
3.49968e-05
0.00010142
9.4905e-05
3.52884e-05
2.87158e-05
2.84648e-05
2.93193e-05
3.01493e-05
3.08169e-05
3.13453e-05
3.17577e-05
3.20731e-05
3.23116e-05
3.2489e-05
3.26151e-05
3.26962e-05
3.2736e-05
3.27361e-05
3.26966e-05
3.26157e-05
3.24898e-05
3.23126e-05
3.2074e-05
3.17587e-05
3.13461e-05
3.08174e-05
3.01494e-05
2.93192e-05
2.84649e-05
2.87176e-05
3.52933e-05
9.49095e-05
9.03172e-05
3.42371e-05
2.90041e-05
2.96379e-05
3.06219e-05
3.13845e-05
3.19507e-05
3.23742e-05
3.26925e-05
3.29295e-05
3.31046e-05
3.32321e-05
3.33213e-05
3.33779e-05
3.34055e-05
3.34056e-05
3.33781e-05
3.33216e-05
3.32325e-05
3.3105e-05
3.29299e-05
3.26928e-05
3.23744e-05
3.19507e-05
3.13843e-05
3.06218e-05
2.96382e-05
2.90055e-05
3.42406e-05
9.03195e-05
8.65946e-05
3.39375e-05
2.94456e-05
3.04534e-05
3.14901e-05
3.22167e-05
3.27185e-05
3.30694e-05
3.33173e-05
3.34926e-05
3.36161e-05
3.37021e-05
3.37602e-05
3.37961e-05
3.38134e-05
3.38134e-05
3.37962e-05
3.37603e-05
3.37023e-05
3.36162e-05
3.34927e-05
3.33173e-05
3.30693e-05
3.27184e-05
3.22167e-05
3.14903e-05
3.04541e-05
2.9447e-05
3.39401e-05
8.65951e-05
8.342e-05
3.39762e-05
3.01115e-05
3.11238e-05
3.21039e-05
3.27743e-05
3.32189e-05
3.35118e-05
3.3704e-05
3.38297e-05
3.39113e-05
3.3964e-05
3.39971e-05
3.40166e-05
3.40256e-05
3.40257e-05
3.40166e-05
3.39972e-05
3.3964e-05
3.39114e-05
3.38297e-05
3.3704e-05
3.35118e-05
3.3219e-05
3.27746e-05
3.21046e-05
3.1125e-05
3.01136e-05
3.39783e-05
8.34188e-05
8.06464e-05
3.41143e-05
3.07725e-05
3.16958e-05
3.2572e-05
3.31638e-05
3.35456e-05
3.37842e-05
3.39288e-05
3.40138e-05
3.40623e-05
3.40892e-05
3.41037e-05
3.4111e-05
3.41141e-05
3.41141e-05
3.4111e-05
3.41037e-05
3.40892e-05
3.40623e-05
3.40138e-05
3.39289e-05
3.37844e-05
3.3546e-05
3.31644e-05
3.25731e-05
3.16974e-05
3.07747e-05
3.41159e-05
8.06433e-05
7.81413e-05
3.42528e-05
3.13165e-05
3.21534e-05
3.29291e-05
3.34413e-05
3.37599e-05
3.39474e-05
3.40505e-05
3.41026e-05
3.41258e-05
3.41341e-05
3.41357e-05
3.41349e-05
3.41341e-05
3.41341e-05
3.41349e-05
3.41357e-05
3.41341e-05
3.41259e-05
3.41027e-05
3.40508e-05
3.39478e-05
3.37605e-05
3.34423e-05
3.29305e-05
3.21553e-05
3.13188e-05
3.42537e-05
7.81366e-05
7.60202e-05
3.43717e-05
3.1746e-05
3.25069e-05
3.31952e-05
3.3638e-05
3.39e-05
3.40425e-05
3.4111e-05
3.41374e-05
3.41423e-05
3.41381e-05
3.41316e-05
3.41262e-05
3.41233e-05
3.41233e-05
3.41262e-05
3.41317e-05
3.41382e-05
3.41424e-05
3.41376e-05
3.41114e-05
3.4043e-05
3.39008e-05
3.36392e-05
3.31967e-05
3.25088e-05
3.1748e-05
3.4372e-05
7.6014e-05
7.4279e-05
3.44686e-05
3.20787e-05
3.2778e-05
3.33942e-05
3.37773e-05
3.39912e-05
3.40964e-05
3.41376e-05
3.4145e-05
3.41375e-05
3.41258e-05
3.4115e-05
3.41073e-05
3.41034e-05
3.41034e-05
3.41073e-05
3.4115e-05
3.41259e-05
3.41377e-05
3.41453e-05
3.41381e-05
3.40972e-05
3.39923e-05
3.37787e-05
3.3396e-05
3.278e-05
3.20805e-05
3.44683e-05
7.42715e-05
7.29042e-05
3.45431e-05
3.23281e-05
3.29798e-05
3.35398e-05
3.38749e-05
3.40503e-05
3.41264e-05
3.41471e-05
3.41413e-05
3.4126e-05
3.41101e-05
3.40975e-05
3.40891e-05
3.40851e-05
3.40851e-05
3.40892e-05
3.40976e-05
3.41103e-05
3.41263e-05
3.41418e-05
3.41478e-05
3.41274e-05
3.40516e-05
3.38765e-05
3.35417e-05
3.29819e-05
3.23298e-05
3.45424e-05
7.28954e-05
7.18843e-05
3.45966e-05
3.25052e-05
3.31225e-05
3.36412e-05
3.39407e-05
3.40876e-05
3.41426e-05
3.41491e-05
3.41347e-05
3.41149e-05
3.40971e-05
3.4084e-05
3.40758e-05
3.40719e-05
3.40719e-05
3.40758e-05
3.40842e-05
3.40974e-05
3.41153e-05
3.41353e-05
3.41499e-05
3.41438e-05
3.40891e-05
3.39425e-05
3.36432e-05
3.31247e-05
3.25068e-05
3.45956e-05
7.18743e-05
7.12104e-05
3.4631e-05
3.26184e-05
3.32135e-05
3.37051e-05
3.39812e-05
3.41095e-05
3.41509e-05
3.41485e-05
3.41291e-05
3.41069e-05
3.40884e-05
3.40754e-05
3.40676e-05
3.4064e-05
3.4064e-05
3.40677e-05
3.40757e-05
3.40888e-05
3.41074e-05
3.41298e-05
3.41495e-05
3.41522e-05
3.41111e-05
3.39832e-05
3.37073e-05
3.32158e-05
3.262e-05
3.46296e-05
7.11991e-05
7.08758e-05
3.46476e-05
3.26733e-05
3.32576e-05
3.37358e-05
3.40004e-05
3.41195e-05
3.41543e-05
3.41477e-05
3.4126e-05
3.41028e-05
3.40842e-05
3.40714e-05
3.40638e-05
3.40604e-05
3.40604e-05
3.40639e-05
3.40717e-05
3.40846e-05
3.41035e-05
3.41268e-05
3.41489e-05
3.41558e-05
3.41214e-05
3.40026e-05
3.37383e-05
3.32601e-05
3.26751e-05
3.4646e-05
7.08632e-05
7.08767e-05
3.46475e-05
3.2673e-05
3.32573e-05
3.37355e-05
3.40002e-05
3.41193e-05
3.41541e-05
3.41475e-05
3.41258e-05
3.41027e-05
3.4084e-05
3.40713e-05
3.40637e-05
3.40603e-05
3.40603e-05
3.40639e-05
3.40716e-05
3.40845e-05
3.41034e-05
3.41268e-05
3.41489e-05
3.41558e-05
3.41214e-05
3.40026e-05
3.37383e-05
3.326e-05
3.26749e-05
3.46457e-05
7.08629e-05
7.12132e-05
3.46307e-05
3.26174e-05
3.32126e-05
3.37043e-05
3.39805e-05
3.41089e-05
3.41503e-05
3.41479e-05
3.41286e-05
3.41064e-05
3.4088e-05
3.40751e-05
3.40673e-05
3.40637e-05
3.40638e-05
3.40675e-05
3.40754e-05
3.40885e-05
3.41072e-05
3.41296e-05
3.41493e-05
3.41521e-05
3.41111e-05
3.39832e-05
3.37073e-05
3.32157e-05
3.26196e-05
3.46287e-05
7.1198e-05
7.18887e-05
3.45961e-05
3.25036e-05
3.31211e-05
3.36399e-05
3.39396e-05
3.40866e-05
3.41416e-05
3.41481e-05
3.41338e-05
3.4114e-05
3.40963e-05
3.40833e-05
3.40752e-05
3.40714e-05
3.40714e-05
3.40754e-05
3.40837e-05
3.40968e-05
3.41147e-05
3.41348e-05
3.41495e-05
3.41434e-05
3.40889e-05
3.39424e-05
3.36432e-05
3.31245e-05
3.2506e-05
3.4594e-05
7.18723e-05
7.291e-05
3.45423e-05
3.23259e-05
3.29779e-05
3.3538e-05
3.38732e-05
3.40487e-05
3.41248e-05
3.41455e-05
3.41398e-05
3.41246e-05
3.41089e-05
3.40964e-05
3.40882e-05
3.40842e-05
3.40843e-05
3.40883e-05
3.40967e-05
3.41093e-05
3.41253e-05
3.41407e-05
3.41468e-05
3.41265e-05
3.4051e-05
3.38761e-05
3.35414e-05
3.29815e-05
3.23287e-05
3.45403e-05
7.28924e-05
7.42859e-05
3.44674e-05
3.20759e-05
3.27754e-05
3.33919e-05
3.3775e-05
3.39889e-05
3.40941e-05
3.41353e-05
3.41428e-05
3.41355e-05
3.41239e-05
3.41133e-05
3.41058e-05
3.4102e-05
3.41021e-05
3.41059e-05
3.41136e-05
3.41243e-05
3.4136e-05
3.41435e-05
3.41363e-05
3.40956e-05
3.3991e-05
3.37778e-05
3.33953e-05
3.27792e-05
3.2079e-05
3.44656e-05
7.42674e-05
7.60275e-05
3.43702e-05
3.17425e-05
3.25037e-05
3.31921e-05
3.3635e-05
3.38969e-05
3.40393e-05
3.41079e-05
3.41344e-05
3.41395e-05
3.41355e-05
3.41293e-05
3.4124e-05
3.41212e-05
3.41213e-05
3.41242e-05
3.41295e-05
3.41358e-05
3.41398e-05
3.41348e-05
3.41085e-05
3.40403e-05
3.38985e-05
3.36373e-05
3.31953e-05
3.25075e-05
3.1746e-05
3.43687e-05
7.60085e-05
7.81486e-05
3.4251e-05
3.13124e-05
3.21495e-05
3.29254e-05
3.34374e-05
3.37559e-05
3.39433e-05
3.40465e-05
3.40987e-05
3.41221e-05
3.41306e-05
3.41324e-05
3.41319e-05
3.41312e-05
3.41313e-05
3.41321e-05
3.41327e-05
3.41309e-05
3.41223e-05
3.40989e-05
3.40467e-05
3.39437e-05
3.37567e-05
3.3439e-05
3.29279e-05
3.21531e-05
3.1316e-05
3.42499e-05
7.81295e-05
8.06531e-05
3.41124e-05
3.07679e-05
3.16914e-05
3.25675e-05
3.3159e-05
3.35406e-05
3.37791e-05
3.39237e-05
3.40088e-05
3.40575e-05
3.40847e-05
3.40994e-05
3.41069e-05
3.41102e-05
3.41103e-05
3.41072e-05
3.40997e-05
3.4085e-05
3.40577e-05
3.40088e-05
3.39235e-05
3.37788e-05
3.35405e-05
3.31595e-05
3.2569e-05
3.1694e-05
3.07712e-05
3.41118e-05
8.0635e-05
8.3426e-05
3.39743e-05
3.0107e-05
3.11191e-05
3.20988e-05
3.27687e-05
3.3213e-05
3.35057e-05
3.36979e-05
3.38236e-05
3.39054e-05
3.39582e-05
3.39916e-05
3.40113e-05
3.40206e-05
3.40208e-05
3.40118e-05
3.39922e-05
3.39588e-05
3.39058e-05
3.38236e-05
3.36975e-05
3.35048e-05
3.32119e-05
3.27678e-05
3.20987e-05
3.11202e-05
3.01094e-05
3.39743e-05
8.34122e-05
8.65995e-05
3.39363e-05
2.94424e-05
3.04488e-05
3.14845e-05
3.22104e-05
3.27116e-05
3.30623e-05
3.33101e-05
3.34853e-05
3.36088e-05
3.36949e-05
3.37532e-05
3.37894e-05
3.3807e-05
3.38072e-05
3.37902e-05
3.37542e-05
3.36961e-05
3.36098e-05
3.34859e-05
3.33099e-05
3.30614e-05
3.271e-05
3.22084e-05
3.14828e-05
3.04481e-05
2.9443e-05
3.39367e-05
8.65881e-05
9.03209e-05
3.42363e-05
2.90015e-05
2.96336e-05
3.06163e-05
3.13779e-05
3.19434e-05
3.23664e-05
3.26844e-05
3.2921e-05
3.30959e-05
3.32234e-05
3.33128e-05
3.33698e-05
3.33978e-05
3.33982e-05
3.33709e-05
3.33143e-05
3.32253e-05
3.30978e-05
3.29225e-05
3.26851e-05
3.23661e-05
3.19419e-05
3.13754e-05
3.06135e-05
2.96313e-05
2.90009e-05
3.42378e-05
9.03129e-05
9.49078e-05
3.5288e-05
2.87142e-05
2.8462e-05
2.93144e-05
3.01432e-05
3.08097e-05
3.13372e-05
3.17489e-05
3.20635e-05
3.23015e-05
3.24788e-05
3.26052e-05
3.26868e-05
3.2727e-05
3.27275e-05
3.26881e-05
3.26073e-05
3.24815e-05
3.23045e-05
3.20663e-05
3.17512e-05
3.13384e-05
3.08095e-05
3.01416e-05
2.93117e-05
2.84594e-05
2.87134e-05
3.52918e-05
9.49044e-05
0.000101416
3.4992e-05
2.88356e-05
2.72624e-05
2.79621e-05
2.8882e-05
2.96645e-05
3.03157e-05
3.08186e-05
3.12013e-05
3.14931e-05
3.17125e-05
3.18698e-05
3.19716e-05
3.20218e-05
3.20223e-05
3.1973e-05
3.18721e-05
3.17156e-05
3.14969e-05
3.12053e-05
3.08224e-05
3.0319e-05
2.96668e-05
2.88825e-05
2.79615e-05
2.72613e-05
2.88367e-05
3.49996e-05
0.000101419
9.83017e-05
2.15597e-05
2.82873e-05
3.06701e-05
3.24328e-05
3.35924e-05
3.43259e-05
3.47576e-05
3.49872e-05
3.51198e-05
3.52036e-05
3.52579e-05
3.5293e-05
3.53143e-05
3.53245e-05
3.53246e-05
3.53146e-05
3.52935e-05
3.52587e-05
3.52047e-05
3.51212e-05
3.49889e-05
3.47595e-05
3.43279e-05
3.35944e-05
3.2435e-05
3.06728e-05
2.82908e-05
2.15634e-05
9.83075e-05
0.000259179
0.000129509
0.000107442
9.56094e-05
9.00691e-05
8.66207e-05
8.39993e-05
8.17109e-05
7.98076e-05
7.82596e-05
7.69745e-05
7.59413e-05
7.51758e-05
7.46714e-05
7.44206e-05
7.44195e-05
7.46683e-05
7.51707e-05
7.59345e-05
7.69666e-05
7.82522e-05
7.97999e-05
8.17033e-05
8.39922e-05
8.66146e-05
9.00646e-05
9.56076e-05
0.000107444
0.000129515
0.000259193
0.000209983
0.000106517
9.25329e-05
8.4986e-05
8.25457e-05
8.13162e-05
8.04518e-05
7.95273e-05
7.86696e-05
7.79693e-05
7.74953e-05
7.71835e-05
7.69583e-05
7.68088e-05
7.67337e-05
7.67332e-05
7.68071e-05
7.69554e-05
7.71793e-05
7.74896e-05
7.7963e-05
7.8662e-05
7.9518e-05
8.04382e-05
8.13007e-05
8.25299e-05
8.49715e-05
9.2521e-05
0.000106508
0.000209971
7.77187e-05
2.33368e-05
4.08692e-05
4.17395e-05
4.30626e-05
4.33732e-05
4.31045e-05
4.27725e-05
4.22941e-05
4.17874e-05
4.13399e-05
4.09878e-05
4.07329e-05
4.05679e-05
4.04868e-05
4.04864e-05
4.05668e-05
4.07311e-05
4.09852e-05
4.13364e-05
4.17832e-05
4.22891e-05
4.27661e-05
4.30962e-05
4.33608e-05
4.30526e-05
4.1734e-05
4.08702e-05
2.33367e-05
7.77171e-05
8.97327e-05
4.99004e-05
4.07473e-05
3.2891e-05
3.01674e-05
2.95806e-05
2.94109e-05
2.91719e-05
2.89462e-05
2.8748e-05
2.85864e-05
2.84691e-05
2.83927e-05
2.83474e-05
2.83258e-05
2.83256e-05
2.83467e-05
2.83912e-05
2.84671e-05
2.85843e-05
2.87459e-05
2.89436e-05
2.91683e-05
2.94063e-05
2.95769e-05
3.01642e-05
3.28889e-05
4.07483e-05
4.99026e-05
8.97289e-05
8.59293e-05
4.89204e-05
3.59801e-05
2.85097e-05
2.52413e-05
2.45838e-05
2.47627e-05
2.50664e-05
2.53385e-05
2.558e-05
2.57898e-05
2.59568e-05
2.6081e-05
2.61629e-05
2.62035e-05
2.62037e-05
2.61636e-05
2.6082e-05
2.59582e-05
2.57917e-05
2.55818e-05
2.5339e-05
2.50661e-05
2.47618e-05
2.45824e-05
2.5239e-05
2.85073e-05
3.5979e-05
4.89188e-05
8.59236e-05
8.44314e-05
4.50139e-05
3.22214e-05
2.61114e-05
2.42572e-05
2.42149e-05
2.46847e-05
2.51957e-05
2.56281e-05
2.59795e-05
2.62596e-05
2.64742e-05
2.66294e-05
2.67298e-05
2.6779e-05
2.67794e-05
2.67309e-05
2.66312e-05
2.64765e-05
2.6262e-05
2.59814e-05
2.56291e-05
2.51957e-05
2.46835e-05
2.42126e-05
2.42548e-05
2.61087e-05
3.22185e-05
4.50092e-05
8.44249e-05
8.32945e-05
4.18515e-05
2.99651e-05
2.51911e-05
2.44449e-05
2.48581e-05
2.54662e-05
2.60186e-05
2.64682e-05
2.68203e-05
2.70906e-05
2.72927e-05
2.74365e-05
2.75287e-05
2.75738e-05
2.75742e-05
2.75297e-05
2.7438e-05
2.72944e-05
2.70922e-05
2.68213e-05
2.64683e-05
2.60175e-05
2.5464e-05
2.4855e-05
2.44414e-05
2.51881e-05
2.99613e-05
4.18441e-05
8.329e-05
8.21194e-05
3.9899e-05
2.83358e-05
2.48975e-05
2.49064e-05
2.55676e-05
2.62367e-05
2.67899e-05
2.72208e-05
2.7547e-05
2.77891e-05
2.79647e-05
2.80866e-05
2.81635e-05
2.82008e-05
2.8201e-05
2.81642e-05
2.80876e-05
2.79657e-05
2.77898e-05
2.7547e-05
2.722e-05
2.67881e-05
2.62339e-05
2.55642e-05
2.49027e-05
2.48939e-05
2.83305e-05
3.98943e-05
8.21162e-05
8.11145e-05
3.86695e-05
2.73728e-05
2.49239e-05
2.53646e-05
2.61617e-05
2.68542e-05
2.73939e-05
2.77971e-05
2.80906e-05
2.83001e-05
2.84462e-05
2.85442e-05
2.86044e-05
2.8633e-05
2.86332e-05
2.86047e-05
2.85446e-05
2.84466e-05
2.83001e-05
2.809e-05
2.77958e-05
2.73918e-05
2.68515e-05
2.61585e-05
2.5361e-05
2.49195e-05
2.73675e-05
3.86656e-05
8.1113e-05
8.04597e-05
3.78404e-05
2.69044e-05
2.51786e-05
2.58095e-05
2.6645e-05
2.733e-05
2.78434e-05
2.8213e-05
2.84714e-05
2.86477e-05
2.87649e-05
2.88399e-05
2.88842e-05
2.89048e-05
2.89049e-05
2.88844e-05
2.884e-05
2.87648e-05
2.86473e-05
2.84706e-05
2.82116e-05
2.78415e-05
2.73275e-05
2.66421e-05
2.58059e-05
2.51739e-05
2.68986e-05
3.7837e-05
8.046e-05
7.9883e-05
3.72611e-05
2.66881e-05
2.54713e-05
2.62007e-05
2.70331e-05
2.76912e-05
2.81698e-05
2.85027e-05
2.87258e-05
2.88705e-05
2.89613e-05
2.90159e-05
2.90464e-05
2.906e-05
2.906e-05
2.90464e-05
2.90158e-05
2.8961e-05
2.887e-05
2.87249e-05
2.85014e-05
2.81681e-05
2.7689e-05
2.70304e-05
2.61973e-05
2.54666e-05
2.66833e-05
3.72583e-05
7.98846e-05
7.93784e-05
3.68532e-05
2.65999e-05
2.57309e-05
2.65143e-05
2.73334e-05
2.79597e-05
2.84018e-05
2.86987e-05
2.8889e-05
2.90055e-05
2.90736e-05
2.91113e-05
2.91306e-05
2.91386e-05
2.91386e-05
2.91306e-05
2.91111e-05
2.90733e-05
2.9005e-05
2.88881e-05
2.86975e-05
2.84003e-05
2.79577e-05
2.73309e-05
2.65109e-05
2.57262e-05
2.65955e-05
3.68508e-05
7.93813e-05
7.89584e-05
3.65701e-05
2.65781e-05
2.59447e-05
2.67557e-05
2.75575e-05
2.81534e-05
2.85624e-05
2.88274e-05
2.89896e-05
2.90828e-05
2.91328e-05
2.91573e-05
2.91682e-05
2.91721e-05
2.91721e-05
2.91681e-05
2.91571e-05
2.91324e-05
2.90823e-05
2.89888e-05
2.88263e-05
2.8561e-05
2.81515e-05
2.75549e-05
2.6752e-05
2.59396e-05
2.65736e-05
3.65679e-05
7.89624e-05
7.86336e-05
3.63809e-05
2.65869e-05
2.61091e-05
2.69322e-05
2.77165e-05
2.82869e-05
2.86688e-05
2.89085e-05
2.90489e-05
2.91245e-05
2.9161e-05
2.91762e-05
2.91812e-05
2.91823e-05
2.91823e-05
2.91811e-05
2.9176e-05
2.91607e-05
2.9124e-05
2.90481e-05
2.89075e-05
2.86674e-05
2.82849e-05
2.77137e-05
2.69281e-05
2.61036e-05
2.65824e-05
3.63789e-05
7.86386e-05
7.8412e-05
3.62659e-05
2.66039e-05
2.62209e-05
2.70481e-05
2.78186e-05
2.83706e-05
2.87335e-05
2.89557e-05
2.90812e-05
2.91451e-05
2.9173e-05
2.91823e-05
2.91836e-05
2.91829e-05
2.91829e-05
2.91835e-05
2.9182e-05
2.91727e-05
2.91446e-05
2.90804e-05
2.89546e-05
2.87319e-05
2.83683e-05
2.78154e-05
2.70436e-05
2.62151e-05
2.65993e-05
3.62639e-05
7.84181e-05
7.82997e-05
3.62133e-05
2.66161e-05
2.62773e-05
2.71055e-05
2.78684e-05
2.84107e-05
2.87639e-05
2.89773e-05
2.90954e-05
2.91534e-05
2.91771e-05
2.91834e-05
2.9183e-05
2.91816e-05
2.91815e-05
2.91829e-05
2.91832e-05
2.91767e-05
2.91528e-05
2.90944e-05
2.8976e-05
2.87621e-05
2.84081e-05
2.78648e-05
2.71006e-05
2.62711e-05
2.66112e-05
3.6211e-05
7.83069e-05
7.83006e-05
3.6214e-05
2.66166e-05
2.62772e-05
2.71052e-05
2.78681e-05
2.84105e-05
2.87638e-05
2.89772e-05
2.90953e-05
2.91534e-05
2.9177e-05
2.91833e-05
2.91829e-05
2.91814e-05
2.91813e-05
2.91827e-05
2.9183e-05
2.91765e-05
2.91526e-05
2.90942e-05
2.89756e-05
2.87615e-05
2.84074e-05
2.78639e-05
2.70997e-05
2.62705e-05
2.66114e-05
3.6212e-05
7.83089e-05
7.84147e-05
3.62679e-05
2.66051e-05
2.62207e-05
2.70473e-05
2.78177e-05
2.83699e-05
2.87331e-05
2.89555e-05
2.90811e-05
2.9145e-05
2.91728e-05
2.91819e-05
2.91831e-05
2.91824e-05
2.91823e-05
2.91829e-05
2.91816e-05
2.91723e-05
2.91441e-05
2.90799e-05
2.89537e-05
2.87305e-05
2.83663e-05
2.7813e-05
2.70412e-05
2.62134e-05
2.65999e-05
3.62666e-05
7.84241e-05
7.86382e-05
3.63842e-05
2.65889e-05
2.61088e-05
2.6931e-05
2.77153e-05
2.82862e-05
2.86685e-05
2.89085e-05
2.9049e-05
2.91245e-05
2.91609e-05
2.91758e-05
2.91806e-05
2.91815e-05
2.91814e-05
2.91804e-05
2.91755e-05
2.91603e-05
2.91236e-05
2.90476e-05
2.89065e-05
2.86657e-05
2.82822e-05
2.771e-05
2.69242e-05
2.61008e-05
2.65833e-05
3.63832e-05
7.86486e-05
7.8965e-05
3.65747e-05
2.6581e-05
2.59443e-05
2.67544e-05
2.75565e-05
2.81531e-05
2.85627e-05
2.88281e-05
2.89903e-05
2.90834e-05
2.91329e-05
2.9157e-05
2.91675e-05
2.91711e-05
2.91711e-05
2.91673e-05
2.91567e-05
2.91323e-05
2.90824e-05
2.89889e-05
2.8826e-05
2.85597e-05
2.81489e-05
2.75507e-05
2.6747e-05
2.59356e-05
2.65747e-05
3.65739e-05
7.89766e-05
7.9387e-05
3.68591e-05
2.66036e-05
2.57307e-05
2.65135e-05
2.73333e-05
2.79607e-05
2.84036e-05
2.87007e-05
2.88909e-05
2.90069e-05
2.90743e-05
2.91113e-05
2.913e-05
2.91377e-05
2.91377e-05
2.91299e-05
2.9111e-05
2.90738e-05
2.90062e-05
2.88897e-05
2.86988e-05
2.84007e-05
2.79565e-05
2.73275e-05
2.65056e-05
2.57213e-05
2.65967e-05
3.68582e-05
7.93996e-05
7.98936e-05
3.72681e-05
2.66928e-05
2.54718e-05
2.62013e-05
2.7035e-05
2.76945e-05
2.8174e-05
2.85068e-05
2.87294e-05
2.88731e-05
2.89628e-05
2.90164e-05
2.90461e-05
2.90592e-05
2.90592e-05
2.9046e-05
2.90162e-05
2.89625e-05
2.88727e-05
2.87286e-05
2.85054e-05
2.81716e-05
2.76908e-05
2.70295e-05
2.61935e-05
2.5462e-05
2.66852e-05
3.72671e-05
7.99073e-05
8.04725e-05
3.78486e-05
2.69104e-05
2.51809e-05
2.58128e-05
2.66504e-05
2.7337e-05
2.78509e-05
2.82199e-05
2.84771e-05
2.86519e-05
2.87675e-05
2.88412e-05
2.88844e-05
2.89044e-05
2.89044e-05
2.88844e-05
2.88411e-05
2.87675e-05
2.86518e-05
2.84768e-05
2.82192e-05
2.78494e-05
2.73343e-05
2.66459e-05
2.58057e-05
2.51713e-05
2.69022e-05
3.78471e-05
8.04869e-05
8.11293e-05
3.86787e-05
2.73804e-05
2.49294e-05
2.53726e-05
2.61723e-05
2.6866e-05
2.74054e-05
2.78072e-05
2.80988e-05
2.83062e-05
2.84503e-05
2.85466e-05
2.86054e-05
2.86333e-05
2.86333e-05
2.86054e-05
2.85466e-05
2.84504e-05
2.83064e-05
2.80991e-05
2.78074e-05
2.74053e-05
2.6865e-05
2.61697e-05
2.53675e-05
2.49213e-05
2.73723e-05
3.86763e-05
8.11435e-05
8.21349e-05
3.99091e-05
2.83452e-05
2.49069e-05
2.49203e-05
2.55846e-05
2.62542e-05
2.68059e-05
2.72344e-05
2.75578e-05
2.77974e-05
2.79707e-05
2.80907e-05
2.81661e-05
2.82024e-05
2.82023e-05
2.81659e-05
2.80905e-05
2.79707e-05
2.77976e-05
2.75584e-05
2.72354e-05
2.68072e-05
2.62552e-05
2.55848e-05
2.49184e-05
2.49024e-05
2.83382e-05
3.99057e-05
8.21433e-05
8.33107e-05
4.18643e-05
2.99722e-05
2.5204e-05
2.44651e-05
2.48816e-05
2.54892e-05
2.60386e-05
2.64848e-05
2.68339e-05
2.71016e-05
2.73015e-05
2.74434e-05
2.7534e-05
2.75779e-05
2.75777e-05
2.75334e-05
2.74427e-05
2.73009e-05
2.71013e-05
2.68342e-05
2.6486e-05
2.60409e-05
2.54921e-05
2.48847e-05
2.44672e-05
2.52036e-05
2.99686e-05
4.18598e-05
8.33181e-05
8.44477e-05
4.50178e-05
3.22273e-05
2.61259e-05
2.4279e-05
2.42425e-05
2.47109e-05
2.5218e-05
2.5647e-05
2.59962e-05
2.62748e-05
2.64879e-05
2.66412e-05
2.67398e-05
2.67876e-05
2.67872e-05
2.67386e-05
2.66395e-05
2.64859e-05
2.6273e-05
2.5995e-05
2.56469e-05
2.52197e-05
2.47147e-05
2.42478e-05
2.42844e-05
2.6129e-05
3.22256e-05
4.50125e-05
8.44558e-05
8.59371e-05
4.89106e-05
3.59801e-05
2.85198e-05
2.52608e-05
2.46068e-05
2.47848e-05
2.50867e-05
2.5358e-05
2.56008e-05
2.58117e-05
2.59785e-05
2.61008e-05
2.61805e-05
2.62194e-05
2.62187e-05
2.61783e-05
2.60974e-05
2.59742e-05
2.5807e-05
2.55965e-05
2.53544e-05
2.50849e-05
2.47858e-05
2.46107e-05
2.52661e-05
2.85225e-05
3.59802e-05
4.89029e-05
8.59414e-05
8.97222e-05
4.98742e-05
4.07389e-05
3.28949e-05
3.01773e-05
2.95934e-05
2.94289e-05
2.91909e-05
2.89664e-05
2.87707e-05
2.86137e-05
2.8497e-05
2.84176e-05
2.83692e-05
2.83462e-05
2.83453e-05
2.83667e-05
2.84134e-05
2.84911e-05
2.86062e-05
2.87631e-05
2.89587e-05
2.91834e-05
2.94225e-05
2.95901e-05
3.01766e-05
3.2895e-05
4.07389e-05
4.9867e-05
8.972e-05
7.77122e-05
2.33267e-05
4.08608e-05
4.17326e-05
4.30631e-05
4.33823e-05
4.31169e-05
4.27869e-05
4.23105e-05
4.18058e-05
4.13593e-05
4.10072e-05
4.07524e-05
4.05877e-05
4.05069e-05
4.05067e-05
4.05869e-05
4.07509e-05
4.1005e-05
4.13561e-05
4.18016e-05
4.23055e-05
4.27806e-05
4.31084e-05
4.33686e-05
4.30501e-05
4.17214e-05
4.08534e-05
2.33188e-05
7.77032e-05
0.000209942
0.000106489
9.25204e-05
8.49843e-05
8.25533e-05
8.13303e-05
8.04692e-05
7.95431e-05
7.86859e-05
7.79859e-05
7.75107e-05
7.71986e-05
7.69735e-05
7.68245e-05
7.67503e-05
7.67508e-05
7.6826e-05
7.6976e-05
7.72017e-05
7.7514e-05
7.79868e-05
7.86864e-05
7.95431e-05
8.04687e-05
8.13281e-05
8.2549e-05
8.49777e-05
9.25112e-05
0.000106476
0.000209916
0.000189179
9.48554e-05
8.34769e-05
7.74834e-05
7.58445e-05
7.50914e-05
7.45093e-05
7.39036e-05
7.34251e-05
7.30465e-05
7.27035e-05
7.24123e-05
7.21994e-05
7.20618e-05
7.19954e-05
7.19978e-05
7.2069e-05
7.22111e-05
7.24282e-05
7.2723e-05
7.30686e-05
7.34491e-05
7.39285e-05
7.45357e-05
7.51154e-05
7.58629e-05
7.74934e-05
8.34761e-05
9.48385e-05
0.00018913
7.12587e-05
3.1142e-05
5.15475e-05
5.46308e-05
5.75554e-05
5.97347e-05
6.08897e-05
6.09351e-05
6.02719e-05
5.92642e-05
5.81928e-05
5.72377e-05
5.64896e-05
5.59842e-05
5.57315e-05
5.57335e-05
5.59897e-05
5.64979e-05
5.72473e-05
5.82024e-05
5.92723e-05
6.02774e-05
6.09354e-05
6.08831e-05
5.97231e-05
5.75371e-05
5.46076e-05
5.15225e-05
3.11056e-05
7.12299e-05
8.22314e-05
5.73482e-05
5.09649e-05
4.46234e-05
4.0268e-05
3.80159e-05
3.66901e-05
3.57176e-05
3.48941e-05
3.41581e-05
3.3508e-05
3.29793e-05
3.25871e-05
3.23316e-05
3.22064e-05
3.22058e-05
3.23298e-05
3.25842e-05
3.29748e-05
3.35019e-05
3.41502e-05
3.48837e-05
3.56995e-05
3.66719e-05
3.80003e-05
4.02565e-05
4.46133e-05
5.09483e-05
5.73123e-05
8.22142e-05
7.88124e-05
6.04612e-05
4.91256e-05
3.67968e-05
2.9848e-05
2.69991e-05
2.60105e-05
2.56732e-05
2.55057e-05
2.53216e-05
2.51136e-05
2.49385e-05
2.48094e-05
2.47266e-05
2.46861e-05
2.46844e-05
2.47214e-05
2.48009e-05
2.49271e-05
2.51002e-05
2.53079e-05
2.54955e-05
2.56656e-05
2.60069e-05
2.70006e-05
2.98534e-05
3.67958e-05
4.91069e-05
6.04252e-05
7.88064e-05
7.72593e-05
5.84704e-05
4.39678e-05
3.14596e-05
2.54132e-05
2.29624e-05
2.22101e-05
2.21615e-05
2.23077e-05
2.2465e-05
2.25883e-05
2.2687e-05
2.2759e-05
2.28071e-05
2.28308e-05
2.28287e-05
2.28011e-05
2.27495e-05
2.26751e-05
2.2576e-05
2.24556e-05
2.2302e-05
2.21606e-05
2.22149e-05
2.29719e-05
2.54208e-05
3.14604e-05
4.39502e-05
5.84475e-05
7.72671e-05
7.63448e-05
5.67693e-05
3.87007e-05
2.79609e-05
2.33832e-05
2.17163e-05
2.14625e-05
2.17208e-05
2.20788e-05
2.23993e-05
2.26508e-05
2.28382e-05
2.29704e-05
2.30549e-05
2.30955e-05
2.3094e-05
2.30504e-05
2.29637e-05
2.28303e-05
2.26437e-05
2.23951e-05
2.20787e-05
2.17259e-05
2.14725e-05
2.17277e-05
2.33927e-05
2.79618e-05
3.86866e-05
5.67599e-05
7.63602e-05
7.57485e-05
5.45294e-05
3.46378e-05
2.58676e-05
2.2427e-05
2.15809e-05
2.17374e-05
2.21465e-05
2.25689e-05
2.29297e-05
2.32131e-05
2.34237e-05
2.35711e-05
2.36641e-05
2.37087e-05
2.37077e-05
2.36613e-05
2.35671e-05
2.34196e-05
2.32102e-05
2.29294e-05
2.2572e-05
2.21533e-05
2.1747e-05
2.1591e-05
2.24333e-05
2.58666e-05
3.46285e-05
5.45296e-05
7.5769e-05
7.52584e-05
5.2184e-05
3.20407e-05
2.46106e-05
2.20576e-05
2.1817e-05
2.22068e-05
2.26995e-05
2.31475e-05
2.35136e-05
2.37952e-05
2.40015e-05
2.41442e-05
2.42332e-05
2.42757e-05
2.42751e-05
2.42317e-05
2.41421e-05
2.39997e-05
2.37946e-05
2.35149e-05
2.31511e-05
2.27052e-05
2.22135e-05
2.18227e-05
2.20599e-05
2.46089e-05
3.20373e-05
5.21934e-05
7.52813e-05
7.4736e-05
4.99141e-05
3.03753e-05
2.37412e-05
2.19599e-05
2.21196e-05
2.26531e-05
2.31926e-05
2.36483e-05
2.40062e-05
2.42741e-05
2.44661e-05
2.45962e-05
2.46762e-05
2.4714e-05
2.47137e-05
2.46754e-05
2.45953e-05
2.44654e-05
2.42744e-05
2.40077e-05
2.3651e-05
2.3196e-05
2.26563e-05
2.21211e-05
2.19589e-05
2.37394e-05
3.03743e-05
4.99306e-05
7.47594e-05
7.43166e-05
4.79193e-05
2.92685e-05
2.32707e-05
2.206e-05
2.24245e-05
2.30335e-05
2.35925e-05
2.40434e-05
2.43856e-05
2.46343e-05
2.48076e-05
2.49222e-05
2.49911e-05
2.50232e-05
2.50231e-05
2.49907e-05
2.49217e-05
2.48074e-05
2.46345e-05
2.43864e-05
2.40445e-05
2.35936e-05
2.30338e-05
2.24232e-05
2.20573e-05
2.32691e-05
2.92688e-05
4.79416e-05
7.43393e-05
7.39925e-05
4.62931e-05
2.85173e-05
2.30299e-05
2.22194e-05
2.26989e-05
2.33419e-05
2.39022e-05
2.43397e-05
2.46622e-05
2.48897e-05
2.50434e-05
2.5142e-05
2.51997e-05
2.52261e-05
2.52259e-05
2.51994e-05
2.51416e-05
2.50431e-05
2.48895e-05
2.46621e-05
2.43395e-05
2.39015e-05
2.33402e-05
2.26962e-05
2.22164e-05
2.30293e-05
2.85193e-05
4.63195e-05
7.40139e-05
7.37497e-05
4.50533e-05
2.80062e-05
2.29096e-05
2.23748e-05
2.2924e-05
2.35804e-05
2.41327e-05
2.4553e-05
2.4855e-05
2.50619e-05
2.51973e-05
2.52813e-05
2.53288e-05
2.53501e-05
2.535e-05
2.53286e-05
2.52808e-05
2.51968e-05
2.50613e-05
2.48541e-05
2.45518e-05
2.41309e-05
2.35778e-05
2.29211e-05
2.23727e-05
2.29113e-05
2.80119e-05
4.50812e-05
7.3769e-05
7.35769e-05
4.41761e-05
2.76671e-05
2.285e-05
2.25003e-05
2.3093e-05
2.37533e-05
2.42949e-05
2.46987e-05
2.49823e-05
2.51717e-05
2.5292e-05
2.5364e-05
2.54034e-05
2.54206e-05
2.54205e-05
2.54031e-05
2.53635e-05
2.52913e-05
2.51708e-05
2.49811e-05
2.4697e-05
2.42927e-05
2.37507e-05
2.30905e-05
2.24993e-05
2.28531e-05
2.7674e-05
4.42031e-05
7.35934e-05
7.34671e-05
4.36282e-05
2.74681e-05
2.28242e-05
2.25872e-05
2.32053e-05
2.38657e-05
2.43981e-05
2.4789e-05
2.50591e-05
2.52359e-05
2.53453e-05
2.54089e-05
2.54427e-05
2.54571e-05
2.5457e-05
2.54424e-05
2.54084e-05
2.53445e-05
2.52348e-05
2.50578e-05
2.47873e-05
2.4396e-05
2.38635e-05
2.32035e-05
2.25871e-05
2.2828e-05
2.74747e-05
4.36511e-05
7.34802e-05
7.34159e-05
4.33984e-05
2.73828e-05
2.28176e-05
2.26325e-05
2.3262e-05
2.39216e-05
2.44487e-05
2.48326e-05
2.50954e-05
2.52655e-05
2.53693e-05
2.54286e-05
2.54596e-05
2.54725e-05
2.54724e-05
2.54593e-05
2.54282e-05
2.53686e-05
2.52645e-05
2.50942e-05
2.48312e-05
2.44471e-05
2.39201e-05
2.32611e-05
2.26332e-05
2.28213e-05
2.73871e-05
4.34064e-05
7.34249e-05
7.3412e-05
4.33971e-05
2.73832e-05
2.28191e-05
2.26347e-05
2.3264e-05
2.39233e-05
2.44499e-05
2.48335e-05
2.50961e-05
2.52661e-05
2.53699e-05
2.54293e-05
2.54603e-05
2.54732e-05
2.54731e-05
2.54601e-05
2.54289e-05
2.53694e-05
2.52655e-05
2.50954e-05
2.48326e-05
2.4449e-05
2.39225e-05
2.3264e-05
2.26362e-05
2.28231e-05
2.73871e-05
4.34044e-05
7.34191e-05
7.34548e-05
4.36186e-05
2.74684e-05
2.28286e-05
2.25936e-05
2.32112e-05
2.38704e-05
2.44016e-05
2.47916e-05
2.50612e-05
2.52377e-05
2.53471e-05
2.54109e-05
2.54449e-05
2.54593e-05
2.54593e-05
2.54447e-05
2.54107e-05
2.53469e-05
2.52374e-05
2.50609e-05
2.47914e-05
2.44014e-05
2.38705e-05
2.3212e-05
2.25959e-05
2.28331e-05
2.74734e-05
4.36351e-05
7.34616e-05
7.35564e-05
4.41599e-05
2.76678e-05
2.28575e-05
2.25109e-05
2.31024e-05
2.37605e-05
2.43001e-05
2.47025e-05
2.49854e-05
2.51746e-05
2.5295e-05
2.53673e-05
2.54071e-05
2.54245e-05
2.54244e-05
2.5407e-05
2.53672e-05
2.5295e-05
2.51747e-05
2.49856e-05
2.47029e-05
2.43007e-05
2.37615e-05
2.3104e-05
2.25136e-05
2.28618e-05
2.76719e-05
4.41762e-05
7.35625e-05
7.37215e-05
4.5032e-05
2.8008e-05
2.29206e-05
2.23891e-05
2.2936e-05
2.35891e-05
2.41387e-05
2.45573e-05
2.48585e-05
2.50654e-05
2.52014e-05
2.5286e-05
2.53342e-05
2.53558e-05
2.53558e-05
2.53341e-05
2.5286e-05
2.52015e-05
2.50658e-05
2.48592e-05
2.45583e-05
2.414e-05
2.35908e-05
2.29381e-05
2.2392e-05
2.29243e-05
2.80105e-05
4.50459e-05
7.37267e-05
7.39574e-05
4.6269e-05
2.85217e-05
2.30445e-05
2.22365e-05
2.27119e-05
2.33504e-05
2.39075e-05
2.43433e-05
2.46656e-05
2.48937e-05
2.50485e-05
2.51483e-05
2.5207e-05
2.5234e-05
2.5234e-05
2.52069e-05
2.51482e-05
2.50487e-05
2.48942e-05
2.46665e-05
2.43449e-05
2.39096e-05
2.33528e-05
2.27145e-05
2.22392e-05
2.30472e-05
2.85216e-05
4.62797e-05
7.39615e-05
7.42757e-05
4.78952e-05
2.92751e-05
2.32876e-05
2.20775e-05
2.24359e-05
2.30395e-05
2.35953e-05
2.40451e-05
2.43881e-05
2.46386e-05
2.4814e-05
2.49306e-05
2.5001e-05
2.5034e-05
2.50339e-05
2.50007e-05
2.49302e-05
2.48138e-05
2.46389e-05
2.43891e-05
2.4047e-05
2.35979e-05
2.30426e-05
2.24392e-05
2.20804e-05
2.32896e-05
2.92735e-05
4.79019e-05
7.42789e-05
7.46908e-05
4.98928e-05
3.03839e-05
2.37584e-05
2.19742e-05
2.21257e-05
2.26535e-05
2.31909e-05
2.36472e-05
2.40076e-05
2.42788e-05
2.44741e-05
2.46072e-05
2.46893e-05
2.47283e-05
2.4728e-05
2.46886e-05
2.46062e-05