/*--------------------------------*- C++ -*----------------------------------*\
| =========                 |                                                 |
| \\      /  F ield         | OpenFOAM: The Open Source CFD Toolbox           |
|  \\    /   O peration     | Version:  2312                                  |
|   \\  /    A nd           | Website:  www.openfoam.com                      |
|    \\/     M anipulation  |                                                 |
\*---------------------------------------------------------------------------*/
FoamFile
{
    version     2.0;
    format      ascii;
    arch        "LSB;label=32;scalar=64";
    class       volScalarField;
    location    "350";
    object      nut;
}
// * * * * * * * * * * * * * * * * * * * * * * * * * * * * * * * * * * * * * //

dimensions      [0 2 -1 0 0 0 0];

internalField   nonuniform List<scalar> 
27000
(
3.95223e-06
6.70683e-06
9.36382e-06
1.17398e-05
1.4048e-05
1.6202e-05
1.81573e-05
1.98085e-05
2.12287e-05
2.24414e-05
2.34417e-05
2.42337e-05
2.48248e-05
2.52178e-05
2.5414e-05
2.5414e-05
2.52179e-05
2.48249e-05
2.42339e-05
2.34419e-05
2.24415e-05
2.12289e-05
1.98088e-05
1.81576e-05
1.62024e-05
1.40483e-05
1.17401e-05
9.36406e-06
6.70703e-06
3.95235e-06
5.75276e-06
1.28132e-06
5.1595e-06
9.07812e-06
1.31625e-05
1.70414e-05
2.07058e-05
2.41135e-05
2.72008e-05
2.9947e-05
3.23337e-05
3.43215e-05
3.58582e-05
3.6904e-05
3.74334e-05
3.74335e-05
3.69043e-05
3.58587e-05
3.43222e-05
3.23345e-05
2.9948e-05
2.72018e-05
2.41144e-05
2.07064e-05
1.70414e-05
1.31625e-05
9.07829e-06
5.15973e-06
1.28147e-06
5.75286e-06
9.22778e-06
7.14046e-06
1.45109e-05
2.61333e-05
3.68657e-05
4.6225e-05
5.47841e-05
6.28117e-05
7.0128e-05
7.65967e-05
8.21446e-05
8.67012e-05
9.01887e-05
9.25463e-05
9.37353e-05
9.37351e-05
9.25457e-05
9.01882e-05
8.67006e-05
8.21436e-05
7.65949e-05
7.01253e-05
6.28077e-05
5.4778e-05
4.62164e-05
3.68572e-05
2.61276e-05
1.45096e-05
7.14149e-06
9.22808e-06
1.21559e-05
1.08402e-05
2.60399e-05
5.26221e-05
7.82476e-05
9.6354e-05
0.000109838
0.000120891
0.000130231
0.000138016
0.000144416
0.000149508
0.000153315
0.000155848
0.000157113
0.000157112
0.000155846
0.000153312
0.000149504
0.00014441
0.000138009
0.000130223
0.00012088
0.000109824
9.63377e-05
7.82325e-05
5.26114e-05
2.60368e-05
1.08412e-05
1.21562e-05
1.49203e-05
1.44746e-05
3.68572e-05
7.6179e-05
0.000113302
0.000139156
0.000155992
0.000167809
0.000176744
0.000183266
0.000188302
0.000192218
0.000195085
0.000196966
0.000197899
0.000197898
0.000196964
0.000195081
0.000192214
0.000188297
0.000183261
0.000176737
0.000167799
0.00015598
0.000139144
0.000113291
7.61708e-05
3.68545e-05
1.44756e-05
1.49206e-05
1.74808e-05
1.84128e-05
4.76871e-05
9.5223e-05
0.000137816
0.000167197
0.000185396
0.000196789
0.000204319
0.000209438
0.000213034
0.000215619
0.00021743
0.000218589
0.000219155
0.000219155
0.000218588
0.000217429
0.000215617
0.000213032
0.000209436
0.000204316
0.000196785
0.000185392
0.000167193
0.000137811
9.52187e-05
4.76856e-05
1.8414e-05
1.74809e-05
1.98133e-05
2.25591e-05
5.85751e-05
0.000111488
0.000155734
0.000185087
0.000202825
0.000213198
0.000219354
0.000223114
0.00022549
0.000227037
0.000228045
0.000228659
0.000228952
0.000228952
0.000228659
0.000228045
0.000227037
0.000225491
0.000223115
0.000219355
0.000213199
0.000202826
0.000185088
0.000155734
0.000111488
5.85766e-05
2.25608e-05
1.98132e-05
2.18981e-05
2.67579e-05
6.9128e-05
0.000125587
0.000169829
0.000197322
0.000213344
0.000222247
0.000227099
0.000229745
0.000231209
0.000232037
0.000232513
0.000232778
0.000232897
0.000232897
0.000232778
0.000232514
0.000232038
0.000231211
0.000229748
0.000227103
0.000222251
0.000213348
0.000197326
0.000169834
0.00012559
6.91315e-05
2.676e-05
2.18978e-05
2.37116e-05
3.08835e-05
7.89916e-05
0.000137675
0.000180967
0.000206048
0.000219971
0.000227286
0.00023096
0.000232731
0.000233548
0.00023391
0.000234062
0.000234123
0.000234143
0.000234144
0.000234123
0.000234064
0.000233912
0.000233551
0.000232734
0.000230965
0.000227292
0.000219976
0.000206054
0.000180974
0.00013768
7.89971e-05
3.0886e-05
2.3711e-05
2.52662e-05
3.47755e-05
8.79371e-05
0.000147802
0.000188837
0.000212104
0.00022421
0.000230136
0.000232838
0.00023395
0.000234329
0.000234403
0.000234373
0.000234327
0.000234298
0.000234298
0.000234327
0.000234375
0.000234406
0.000234333
0.000233955
0.000232843
0.000230142
0.000224217
0.000212111
0.000188843
0.000147808
8.79425e-05
3.47781e-05
2.52653e-05
2.6562e-05
3.82795e-05
9.57485e-05
0.000156283
0.000195385
0.000216555
0.000227019
0.000231789
0.000233734
0.000234373
0.000234467
0.000234374
0.00023425
0.000234153
0.000234103
0.000234104
0.000234154
0.000234252
0.000234377
0.000234471
0.000234377
0.00023374
0.000231795
0.000227026
0.000216562
0.000195392
0.00015629
9.57547e-05
3.82825e-05
2.65608e-05
2.75986e-05
4.12595e-05
0.00010221
0.000163051
0.000200488
0.000219842
0.000228926
0.000232778
0.000234158
0.00023447
0.000234385
0.000234202
0.000234036
0.000233922
0.000233867
0.000233867
0.000233924
0.000234038
0.000234205
0.00023439
0.000234475
0.000234164
0.000232786
0.000228934
0.00021985
0.000200497
0.000163061
0.000102218
4.1263e-05
2.75971e-05
2.8376e-05
4.36003e-05
0.000107171
0.000168124
0.000204207
0.000222156
0.000230197
0.000233375
0.000234358
0.000234455
0.000234265
0.000234037
0.000233856
0.000233741
0.000233687
0.000233687
0.000233743
0.000233859
0.00023404
0.000234269
0.000234461
0.000234365
0.000233383
0.000230205
0.000222166
0.000204219
0.000168141
0.000107182
4.36044e-05
2.83742e-05
2.88943e-05
4.52119e-05
0.000110532
0.000171521
0.000206633
0.000223627
0.000230975
0.000233717
0.00023445
0.000234419
0.00023417
0.000233923
0.00023374
0.000233629
0.000233577
0.000233578
0.00023363
0.000233743
0.000233926
0.000234176
0.000234425
0.000234457
0.000233725
0.000230985
0.000223638
0.000206647
0.00017154
0.000110544
4.52167e-05
2.88921e-05
2.91535e-05
4.60328e-05
0.000112225
0.000173214
0.000207826
0.00022434
0.000231344
0.000233871
0.000234485
0.000234394
0.000234121
0.000233866
0.000233685
0.000233576
0.000233527
0.000233528
0.000233578
0.000233688
0.00023387
0.000234127
0.000234401
0.000234494
0.000233881
0.000231355
0.000224353
0.000207842
0.000173236
0.000112241
4.60385e-05
2.9151e-05
2.91536e-05
4.60321e-05
0.000112224
0.000173212
0.000207825
0.000224338
0.000231343
0.00023387
0.000234484
0.000234392
0.000234119
0.000233865
0.000233683
0.000233575
0.000233526
0.000233527
0.000233577
0.000233687
0.000233869
0.000234125
0.0002344
0.000234493
0.00023388
0.000231354
0.000224352
0.000207843
0.000173237
0.000112242
4.60386e-05
2.91509e-05
2.88946e-05
4.52101e-05
0.000110528
0.000171517
0.000206629
0.000223623
0.000230971
0.000233712
0.000234445
0.000234413
0.000234166
0.000233918
0.000233736
0.000233625
0.000233574
0.000233574
0.000233627
0.000233739
0.000233923
0.000234172
0.000234421
0.000234454
0.000233722
0.000230983
0.000223637
0.000206648
0.000171543
0.000110548
4.52173e-05
2.88917e-05
2.83766e-05
4.35973e-05
0.000107166
0.000168118
0.000204202
0.00022215
0.000230189
0.000233367
0.000234349
0.000234446
0.000234256
0.000234029
0.000233849
0.000233734
0.000233681
0.000233681
0.000233736
0.000233852
0.000234033
0.000234262
0.000234454
0.000234358
0.000233377
0.000230201
0.000222163
0.00020422
0.000168145
0.000107187
4.36051e-05
2.83734e-05
2.75993e-05
4.12557e-05
0.000102203
0.000163044
0.000200481
0.000219832
0.000228915
0.000232766
0.000234145
0.000234457
0.000234373
0.00023419
0.000234025
0.000233912
0.000233857
0.000233858
0.000233914
0.000234028
0.000234194
0.000234378
0.000234463
0.000234152
0.000232775
0.000228925
0.000219844
0.000200497
0.000163066
0.000102225
4.12637e-05
2.75961e-05
2.65627e-05
3.8275e-05
9.574e-05
0.000156275
0.000195375
0.000216542
0.000227003
0.000231771
0.000233716
0.000234354
0.000234449
0.000234358
0.000234234
0.000234139
0.000234089
0.00023409
0.00023414
0.000234237
0.000234361
0.000234454
0.00023436
0.000233722
0.000231779
0.000227012
0.000216552
0.000195388
0.000156294
9.5761e-05
3.82829e-05
2.65595e-05
2.52668e-05
3.47706e-05
8.79266e-05
0.000147791
0.000188822
0.000212086
0.000224189
0.000230113
0.000232814
0.000233927
0.000234307
0.000234382
0.000234353
0.000234307
0.000234279
0.00023428
0.000234309
0.000234355
0.000234385
0.00023431
0.000233931
0.000232819
0.000230119
0.000224196
0.000212094
0.000188834
0.000147808
8.79461e-05
3.4778e-05
2.52638e-05
2.37121e-05
3.08786e-05
7.89797e-05
0.000137661
0.000180946
0.000206024
0.000219944
0.000227258
0.000230932
0.000232702
0.000233521
0.000233884
0.000234037
0.000234099
0.000234121
0.000234122
0.000234101
0.00023404
0.000233886
0.000233524
0.000232706
0.000230936
0.000227263
0.000219949
0.00020603
0.000180958
0.000137674
7.89962e-05
3.08851e-05
2.37094e-05
2.18985e-05
2.67534e-05
6.91156e-05
0.00012557
0.000169803
0.000197293
0.000213313
0.000222215
0.000227067
0.000229713
0.000231177
0.000232007
0.000232485
0.000232752
0.000232873
0.000232873
0.000232753
0.000232487
0.00023201
0.00023118
0.000229716
0.00022707
0.000222218
0.000213316
0.000197296
0.000169809
0.000125577
6.91271e-05
2.67584e-05
2.18962e-05
1.98136e-05
2.25555e-05
5.85637e-05
0.00011147
0.000155708
0.000185055
0.000202791
0.000213164
0.000219319
0.000223079
0.000225456
0.000227006
0.000228017
0.000228634
0.000228929
0.000228929
0.000228635
0.000228018
0.000227008
0.000225458
0.000223081
0.000219321
0.000213166
0.000202792
0.000185055
0.000155708
0.000111471
5.85693e-05
2.25586e-05
1.9812e-05
1.7481e-05
1.84106e-05
4.76795e-05
9.52061e-05
0.00013779
0.000167162
0.000185363
0.000196754
0.000204282
0.000209399
0.000213
0.00021559
0.000217406
0.000218568
0.000219137
0.000219137
0.000218569
0.000217407
0.000215591
0.000213002
0.000209401
0.000204283
0.000196755
0.000185363
0.000167158
0.000137786
9.5201e-05
4.76791e-05
1.84122e-05
1.74799e-05
1.49205e-05
1.44731e-05
3.68513e-05
7.61664e-05
0.000113286
0.000139136
0.000155968
0.000167773
0.000176703
0.000183218
0.000188272
0.000192196
0.000195068
0.000196954
0.00019789
0.00019789
0.000196955
0.000195068
0.000192196
0.000188273
0.000183222
0.000176703
0.00016777
0.000155965
0.000139133
0.000113279
7.61575e-05
3.68473e-05
1.44739e-05
1.49198e-05
1.2156e-05
1.08394e-05
2.60364e-05
5.26179e-05
7.82433e-05
9.63473e-05
0.000109828
0.000120877
0.000130214
0.000137997
0.000144397
0.000149491
0.000153304
0.000155843
0.000157113
0.000157114
0.000155845
0.000153307
0.000149495
0.0001444
0.000137998
0.000130214
0.000120875
0.000109824
9.63418e-05
7.8236e-05
5.26088e-05
2.6031e-05
1.08398e-05
1.21558e-05
9.22793e-06
7.14061e-06
1.45102e-05
2.61325e-05
3.68648e-05
4.62229e-05
5.47769e-05
6.2802e-05
7.01166e-05
7.65836e-05
8.21276e-05
8.66852e-05
9.01795e-05
9.25443e-05
9.37374e-05
9.37388e-05
9.25483e-05
9.01857e-05
8.66932e-05
8.21361e-05
7.65907e-05
7.01225e-05
6.2806e-05
5.4778e-05
4.62207e-05
3.6861e-05
2.61278e-05
1.45077e-05
7.14163e-06
9.228e-06
5.75272e-06
1.2812e-06
5.15887e-06
9.0774e-06
1.31613e-05
1.70397e-05
2.07033e-05
2.41104e-05
2.71972e-05
2.9943e-05
3.23288e-05
3.43165e-05
3.5854e-05
3.69008e-05
3.7431e-05
3.74317e-05
3.69027e-05
3.5857e-05
3.43203e-05
3.23329e-05
2.99467e-05
2.72007e-05
2.41135e-05
2.07056e-05
1.70411e-05
1.31621e-05
9.07774e-06
5.15917e-06
1.28141e-06
5.75286e-06
3.95237e-06
6.70714e-06
9.3642e-06
1.17402e-05
1.40485e-05
1.62026e-05
1.8158e-05
1.98094e-05
2.12297e-05
2.24426e-05
2.3443e-05
2.42352e-05
2.48264e-05
2.52193e-05
2.54154e-05
2.54152e-05
2.52189e-05
2.48256e-05
2.42343e-05
2.3442e-05
2.24417e-05
2.12288e-05
1.98086e-05
1.81574e-05
1.62021e-05
1.40482e-05
1.17401e-05
9.36428e-06
6.70729e-06
3.95249e-06
3.55746e-06
6.08267e-06
8.69018e-06
1.10688e-05
1.34491e-05
1.56989e-05
1.77707e-05
1.95433e-05
2.10782e-05
2.24014e-05
2.35229e-05
2.44334e-05
2.51198e-05
2.55785e-05
2.58081e-05
2.5808e-05
2.55781e-05
2.51191e-05
2.44325e-05
2.35218e-05
2.24004e-05
2.1077e-05
1.9542e-05
1.7769e-05
1.56972e-05
1.34477e-05
1.10678e-05
8.68966e-06
6.0824e-06
3.55741e-06
5.11491e-06
1.60717e-06
7.44344e-06
1.10139e-05
1.4596e-05
1.76126e-05
2.02102e-05
2.26128e-05
2.47006e-05
2.64826e-05
2.79547e-05
2.91221e-05
2.99967e-05
3.05813e-05
3.08743e-05
3.08748e-05
3.05827e-05
2.99987e-05
2.91244e-05
2.7957e-05
2.64845e-05
2.4702e-05
2.26136e-05
2.02101e-05
1.76101e-05
1.45942e-05
1.10134e-05
7.44398e-06
1.60723e-06
5.11504e-06
8.67998e-06
1.01802e-05
1.32256e-05
1.67047e-05
2.18669e-05
2.73127e-05
3.234e-05
3.67314e-05
4.07286e-05
4.4291e-05
4.73051e-05
4.97558e-05
5.16236e-05
5.28788e-05
5.35012e-05
5.35018e-05
5.28799e-05
5.16224e-05
4.97538e-05
4.73032e-05
4.42899e-05
4.07261e-05
3.6728e-05
3.23377e-05
2.73139e-05
2.18684e-05
1.67056e-05
1.32265e-05
1.0181e-05
8.67991e-06
1.15667e-05
1.33949e-05
1.79e-05
2.56968e-05
3.60144e-05
4.66686e-05
5.60982e-05
6.42832e-05
7.15299e-05
7.80045e-05
8.35858e-05
8.81089e-05
9.15193e-05
9.37896e-05
9.4919e-05
9.49206e-05
9.37938e-05
9.15252e-05
8.81165e-05
8.35944e-05
7.80116e-05
7.15296e-05
6.42815e-05
5.60974e-05
4.66688e-05
3.60157e-05
2.56976e-05
1.79004e-05
1.3395e-05
1.15664e-05
1.44259e-05
1.5876e-05
2.28064e-05
3.5942e-05
5.45483e-05
7.40242e-05
9.00957e-05
0.000102556
0.00011268
0.000121385
0.000128524
0.000134079
0.000138161
0.000140789
0.000142063
0.000142064
0.000140793
0.000138172
0.000134093
0.000128536
0.00012139
0.00011268
0.000102551
9.0087e-05
7.40151e-05
5.45449e-05
3.59413e-05
2.28055e-05
1.58748e-05
1.44253e-05
1.71444e-05
1.80979e-05
2.86248e-05
4.71395e-05
7.35859e-05
0.000100215
0.000122331
0.000138197
0.000149706
0.000158493
0.000165274
0.000170384
0.000174048
0.0001764
0.000177542
0.000177542
0.000176401
0.000174051
0.000170387
0.000165273
0.000158486
0.000149694
0.00013818
0.00012231
0.000100195
7.35729e-05
4.7135e-05
2.86234e-05
1.80956e-05
1.71438e-05
1.96581e-05
2.05468e-05
3.39775e-05
5.83416e-05
9.10542e-05
0.000122581
0.000146948
0.000164197
0.000176146
0.000184564
0.000190601
0.000194917
0.000197899
0.000199775
0.000200678
0.000200678
0.000199773
0.000197896
0.000194912
0.000190592
0.00018455
0.000176128
0.000164176
0.000146925
0.000122557
9.10366e-05
5.83335e-05
3.39733e-05
2.05463e-05
1.96576e-05
2.19615e-05
2.303e-05
3.90575e-05
6.88849e-05
0.000106075
0.00013983
0.000164821
0.000182135
0.00019376
0.000201523
0.00020674
0.000210248
0.000212554
0.000213956
0.000214618
0.000214617
0.000213952
0.000212549
0.00021024
0.000206728
0.000201507
0.000193741
0.000182115
0.0001648
0.000139809
0.000106058
6.88729e-05
3.90535e-05
2.30302e-05
2.1961e-05
2.40607e-05
2.53429e-05
4.39287e-05
7.87895e-05
0.000119005
0.000153212
0.000177788
0.000194383
0.000205201
0.000212124
0.000216521
0.0002193
0.000221022
0.00022202
0.000222479
0.000222477
0.000222017
0.000221016
0.000219291
0.000216509
0.000212109
0.000205184
0.000194364
0.000177769
0.000153195
0.000118988
7.87738e-05
4.39214e-05
2.5344e-05
2.40604e-05
2.59001e-05
2.74234e-05
4.83513e-05
8.74621e-05
0.000130173
0.000163771
0.000187294
0.000202778
0.000212573
0.000218597
0.000222229
0.000224382
0.000225629
0.00022631
0.00022661
0.000226609
0.000226307
0.000225624
0.000224374
0.000222218
0.000218585
0.000212559
0.000202763
0.000187279
0.000163757
0.000130161
8.74487e-05
4.83535e-05
2.74258e-05
2.59e-05
2.74587e-05
2.92371e-05
5.22014e-05
9.4631e-05
0.000138532
0.000171739
0.000194193
0.000208531
0.000217307
0.00022249
0.000225453
0.000227096
0.000227976
0.000228419
0.000228602
0.000228601
0.000228416
0.000227971
0.000227089
0.000225444
0.000222479
0.000217295
0.000208519
0.000194182
0.000171729
0.000138523
9.46186e-05
5.22071e-05
2.92401e-05
2.74588e-05
2.87219e-05
3.07472e-05
5.54145e-05
0.000100378
0.00014488
0.000177599
0.000199103
0.000212432
0.000220323
0.000224797
0.000227221
0.000228471
0.00022908
0.000229354
0.000229456
0.000229455
0.000229352
0.000229076
0.000228465
0.000227214
0.000224789
0.000220314
0.000212422
0.000199095
0.000177592
0.000144872
0.000100363
5.54197e-05
3.07504e-05
2.87222e-05
2.96785e-05
3.19186e-05
5.79226e-05
0.00010475
0.000149538
0.00018176
0.000202475
0.000215001
0.000222203
0.000226135
0.000228159
0.000229127
0.000229549
0.00022971
0.000229759
0.000229758
0.000229708
0.000229545
0.000229122
0.000228152
0.000226128
0.000222195
0.000214994
0.000202468
0.000181754
0.00014953
0.000104737
5.79279e-05
3.19216e-05
2.96791e-05
3.03205e-05
3.27204e-05
5.96454e-05
0.000107725
0.000152624
0.000184448
0.000204596
0.000216565
0.000223296
0.000226866
0.000228628
0.000229416
0.000229722
0.000229814
0.000229832
0.000229831
0.000229812
0.000229719
0.000229412
0.000228622
0.000226859
0.000223289
0.000216558
0.000204589
0.000184441
0.000152616
0.00010771
5.96496e-05
3.27225e-05
3.03213e-05
3.06428e-05
3.31305e-05
6.05253e-05
0.000109223
0.000154164
0.00018577
0.000205622
0.000217306
0.0002238
0.000227189
0.000228821
0.000229522
0.000229772
0.000229833
0.000229836
0.000229835
0.000229831
0.000229769
0.000229518
0.000228815
0.000227182
0.000223793
0.000217299
0.000205615
0.000185762
0.000154153
0.000109206
6.05266e-05
3.31308e-05
3.06439e-05
3.06431e-05
3.31299e-05
6.05238e-05
0.000109221
0.000154162
0.000185769
0.000205622
0.000217307
0.000223801
0.000227189
0.000228821
0.000229522
0.000229772
0.000229832
0.000229835
0.000229834
0.00022983
0.000229768
0.000229517
0.000228815
0.000227182
0.000223792
0.000217298
0.000205613
0.00018576
0.000154149
0.000109201
6.05234e-05
3.31294e-05
3.06444e-05
3.03213e-05
3.27179e-05
5.96405e-05
0.000107718
0.000152619
0.000184446
0.000204596
0.000216567
0.000223299
0.000226868
0.000228629
0.000229416
0.00022972
0.000229812
0.000229829
0.000229828
0.00022981
0.000229717
0.000229411
0.000228622
0.00022686
0.00022329
0.000216557
0.000204586
0.000184435
0.000152604
0.000107695
5.96394e-05
3.27177e-05
3.03227e-05
2.96797e-05
3.19147e-05
5.79153e-05
0.00010474
0.000149531
0.000181759
0.000202479
0.000215007
0.000222209
0.00022614
0.000228162
0.000229128
0.000229548
0.000229707
0.000229755
0.000229754
0.000229705
0.000229544
0.000229123
0.000228155
0.000226131
0.000222199
0.000214996
0.000202467
0.000181746
0.000149513
0.000104714
5.79121e-05
3.1914e-05
2.96813e-05
2.87235e-05
3.07425e-05
5.54066e-05
0.000100368
0.000144877
0.000177604
0.000199113
0.000212443
0.000220335
0.000224807
0.000227229
0.000228475
0.000229081
0.000229352
0.000229453
0.000229452
0.00022935
0.000229077
0.000228469
0.000227221
0.000224798
0.000220325
0.000212432
0.0001991
0.000177589
0.000144855
0.000100335
5.54004e-05
3.0741e-05
2.87253e-05
2.74607e-05
2.92324e-05
5.21939e-05
9.46222e-05
0.000138533
0.000171751
0.000194212
0.000208551
0.000217326
0.000222507
0.000225466
0.000227105
0.00022798
0.00022842
0.000228602
0.000228601
0.000228418
0.000227976
0.000227099
0.000225459
0.000222497
0.000217316
0.00020854
0.000194199
0.000171736
0.00013851
9.45879e-05
5.21859e-05
2.92303e-05
2.74626e-05
2.59024e-05
2.74197e-05
4.83471e-05
8.74582e-05
0.000130182
0.000163794
0.000187324
0.000202809
0.000212602
0.000218622
0.000222248
0.000224396
0.000225638
0.000226315
0.000226613
0.000226612
0.000226313
0.000225634
0.00022439
0.000222241
0.000218613
0.000212592
0.000202798
0.000187311
0.000163778
0.000130159
8.74243e-05
4.83368e-05
2.74169e-05
2.59043e-05
2.40633e-05
2.53406e-05
4.39291e-05
7.87939e-05
0.000119024
0.000153249
0.000177831
0.000194425
0.000205239
0.000212156
0.000216548
0.00021932
0.000221036
0.00022203
0.000222485
0.000222484
0.000222027
0.000221032
0.000219314
0.000216541
0.000212148
0.000205229
0.000194415
0.00017782
0.000153233
0.000118997
7.87632e-05
4.39179e-05
2.53375e-05
2.40651e-05
2.19641e-05
2.30292e-05
3.90627e-05
6.89021e-05
0.000106117
0.000139889
0.000164883
0.00018219
0.000193807
0.000201563
0.000206773
0.000210274
0.000212574
0.000213969
0.000214628
0.000214627
0.000213966
0.000212569
0.000210269
0.000206766
0.000201555
0.000193799
0.000182182
0.000164875
0.000139879
0.000106099
6.88808e-05
3.90529e-05
2.30263e-05
2.19657e-05
1.96603e-05
2.05478e-05
3.39863e-05
5.8369e-05
9.11204e-05
0.000122671
0.000147031
0.000164265
0.000176202
0.000184611
0.00019064
0.000194948
0.000197922
0.00019979
0.000200689
0.000200688
0.000199787
0.000197918
0.000194944
0.000190635
0.000184605
0.000176196
0.00016426
0.000147027
0.000122666
9.11144e-05
5.83617e-05
3.39798e-05
2.05456e-05
1.96611e-05
1.71463e-05
1.8102e-05
2.863e-05
4.71695e-05
7.36618e-05
0.000100322
0.000122439
0.000138277
0.000149772
0.000158551
0.00016532
0.000170419
0.000174074
0.000176414
0.000177549
0.000177548
0.000176412
0.000174071
0.000170417
0.000165317
0.000158548
0.00014977
0.000138278
0.000122442
0.000100328
7.36684e-05
4.71724e-05
2.8629e-05
1.80998e-05
1.7147e-05
1.44275e-05
1.58773e-05
2.28122e-05
3.59617e-05
5.45993e-05
7.41178e-05
9.02003e-05
0.000102646
0.00011276
0.000121463
0.000128581
0.000134125
0.000138192
0.000140805
0.000142068
0.000142067
0.000140802
0.00013819
0.000134123
0.00012858
0.000121459
0.00011276
0.000102651
9.02123e-05
7.41317e-05
5.46121e-05
3.59689e-05
2.28132e-05
1.58755e-05
1.44282e-05
1.15673e-05
1.33934e-05
1.79029e-05
2.57038e-05
3.60289e-05
4.67073e-05
5.61425e-05
6.43282e-05
7.15769e-05
7.80615e-05
8.3654e-05
8.81778e-05
9.15713e-05
9.38212e-05
9.49393e-05
9.49372e-05
9.38149e-05
9.15615e-05
8.81649e-05
8.36409e-05
7.80518e-05
7.15695e-05
6.43261e-05
5.61473e-05
4.67164e-05
3.60375e-05
2.57076e-05
1.79052e-05
1.33922e-05
1.15677e-05
8.67945e-06
1.01754e-05
1.32252e-05
1.67082e-05
2.18708e-05
2.73162e-05
3.23484e-05
3.67381e-05
4.07331e-05
4.42973e-05
4.73365e-05
4.97844e-05
5.16211e-05
5.28467e-05
5.34601e-05
5.34595e-05
5.28449e-05
5.16175e-05
4.97764e-05
4.73253e-05
4.42906e-05
4.07269e-05
3.67328e-05
3.23456e-05
2.73178e-05
2.18731e-05
1.671e-05
1.32267e-05
1.01747e-05
8.67948e-06
5.11474e-06
1.60657e-06
7.44315e-06
1.10132e-05
1.45968e-05
1.7615e-05
2.02115e-05
2.26124e-05
2.46978e-05
2.64771e-05
2.79474e-05
2.91114e-05
2.99821e-05
3.05636e-05
3.0855e-05
3.08551e-05
3.05638e-05
2.99824e-05
2.91116e-05
2.79473e-05
2.64772e-05
2.46974e-05
2.26113e-05
2.02095e-05
1.76105e-05
1.4593e-05
1.10108e-05
7.44222e-06
1.60606e-06
5.11462e-06
3.55711e-06
6.08182e-06
8.68967e-06
1.10688e-05
1.345e-05
1.57007e-05
1.77732e-05
1.95458e-05
2.1081e-05
2.24045e-05
2.35263e-05
2.44369e-05
2.51235e-05
2.55823e-05
2.58121e-05
2.58122e-05
2.55825e-05
2.51237e-05
2.44372e-05
2.35265e-05
2.24044e-05
2.10808e-05
1.95455e-05
1.77729e-05
1.57002e-05
1.34495e-05
1.10683e-05
8.68921e-06
6.08148e-06
3.55695e-06
3.37661e-06
5.73989e-06
8.25386e-06
1.05688e-05
1.28915e-05
1.5086e-05
1.7102e-05
1.884e-05
2.0364e-05
2.16834e-05
2.27849e-05
2.36672e-05
2.43319e-05
2.47768e-05
2.49999e-05
2.50004e-05
2.4778e-05
2.43339e-05
2.36698e-05
2.2788e-05
2.16866e-05
2.03673e-05
1.8843e-05
1.71049e-05
1.50882e-05
1.28929e-05
1.05693e-05
8.2537e-06
5.73926e-06
3.37612e-06
4.89774e-06
2.56071e-06
1.07572e-05
1.60451e-05
2.11114e-05
2.55918e-05
2.93988e-05
3.23634e-05
3.4639e-05
3.63617e-05
3.76626e-05
3.86377e-05
3.934e-05
3.97974e-05
4.00235e-05
4.00235e-05
3.97974e-05
3.93398e-05
3.86371e-05
3.76612e-05
3.63594e-05
3.46355e-05
3.23575e-05
2.93906e-05
2.55842e-05
2.11038e-05
1.60383e-05
1.07523e-05
2.55754e-06
4.89668e-06
8.30905e-06
1.3179e-05
1.72992e-05
2.10643e-05
2.4084e-05
2.71906e-05
3.01842e-05
3.30467e-05
3.57729e-05
3.82693e-05
4.04388e-05
4.22272e-05
4.35972e-05
4.4526e-05
4.49985e-05
4.49968e-05
4.45214e-05
4.35914e-05
4.22209e-05
4.0433e-05
3.82645e-05
3.57692e-05
3.30356e-05
3.01732e-05
2.71816e-05
2.4079e-05
2.10619e-05
1.72967e-05
1.31717e-05
8.30806e-06
1.10771e-05
1.83094e-05
2.33214e-05
2.48438e-05
2.86607e-05
3.49886e-05
4.15919e-05
4.77512e-05
5.32667e-05
5.79847e-05
6.18769e-05
6.50445e-05
6.74554e-05
6.90834e-05
6.99033e-05
6.9898e-05
6.90681e-05
6.74315e-05
6.5015e-05
6.18465e-05
5.79605e-05
5.32617e-05
4.77656e-05
4.1604e-05
3.49954e-05
2.86666e-05
2.48463e-05
2.33164e-05
1.82988e-05
1.10765e-05
1.37993e-05
2.22459e-05
2.64169e-05
2.95185e-05
3.8723e-05
5.06781e-05
6.19514e-05
7.17484e-05
7.98885e-05
8.67842e-05
9.2511e-05
9.71416e-05
0.000100625
0.000103047
0.000104304
0.000104296
0.000103022
0.000100578
9.70838e-05
9.24577e-05
8.6755e-05
7.98823e-05
7.17604e-05
6.19714e-05
5.06977e-05
3.87277e-05
2.95237e-05
2.64108e-05
2.22376e-05
1.38e-05
1.64134e-05
2.56649e-05
2.86489e-05
3.58967e-05
5.07655e-05
6.85492e-05
8.57412e-05
0.000100941
0.000113081
0.000122566
0.000129964
0.00013562
0.000139671
0.000142285
0.000143583
0.000143579
0.000142271
0.000139645
0.000135584
0.000129936
0.000122558
0.000113096
0.000100973
8.5787e-05
6.85852e-05
5.07909e-05
3.59079e-05
2.86424e-05
2.56593e-05
1.64151e-05
1.888e-05
2.82541e-05
3.10267e-05
4.35908e-05
6.30623e-05
8.61999e-05
0.000109602
0.000128589
0.000142534
0.000152783
0.000160373
0.000165937
0.000169835
0.000172304
0.000173505
0.000173503
0.000172299
0.000169826
0.000165928
0.00016037
0.000152792
0.000142554
0.000128621
0.000109648
8.62491e-05
6.30918e-05
4.36039e-05
3.10209e-05
2.82504e-05
1.88827e-05
2.11539e-05
3.03281e-05
3.41156e-05
5.10787e-05
7.47934e-05
0.000103208
0.000129625
0.000149827
0.000164426
0.000174798
0.000182151
0.000187317
0.000190822
0.000192996
0.000194036
0.000194036
0.000192995
0.000190822
0.000187318
0.000182156
0.000174809
0.000164444
0.000149852
0.000129656
0.00010324
7.48122e-05
5.10842e-05
3.4111e-05
3.03278e-05
2.11574e-05
2.31892e-05
3.20075e-05
3.75023e-05
5.7464e-05
8.5109e-05
0.000117723
0.000145117
0.000165504
0.000179976
0.000190026
0.000196925
0.000201595
0.000204658
0.000206507
0.000207377
0.000207378
0.000206508
0.00020466
0.000201599
0.00019693
0.000190035
0.000179989
0.00016552
0.000145134
0.000117735
8.51117e-05
5.74651e-05
3.74946e-05
3.20101e-05
2.31932e-05
2.49815e-05
3.338e-05
4.08557e-05
6.34572e-05
9.50752e-05
0.000129638
0.000157021
0.000176957
0.000190871
0.000200341
0.000206668
0.000210813
0.00021344
0.00021498
0.000215691
0.000215691
0.000214981
0.000213442
0.000210816
0.000206672
0.000200347
0.000190878
0.000176964
0.000157028
0.000129639
9.50649e-05
6.34542e-05
4.08384e-05
3.33856e-05
2.49858e-05
2.65109e-05
3.45046e-05
4.3929e-05
6.87489e-05
0.000103732
0.000138933
0.000165988
0.000185241
0.000198432
0.000207228
0.000212955
0.000216592
0.00021882
0.000220086
0.000220657
0.000220657
0.000220086
0.00021882
0.000216593
0.000212956
0.000207229
0.000198434
0.000185242
0.000165986
0.000138924
0.000103715
6.87453e-05
4.39075e-05
3.45131e-05
2.65152e-05
2.77585e-05
3.54109e-05
4.6499e-05
7.31094e-05
0.000110635
0.000146007
0.000172571
0.000191119
0.000203594
0.000211742
0.000216917
0.000220105
0.000221994
0.000223032
0.000223489
0.000223489
0.000223031
0.000221993
0.000220104
0.000216915
0.00021174
0.000203591
0.000191114
0.000172563
0.000145993
0.00011062
7.31154e-05
4.64938e-05
3.54219e-05
2.77626e-05
2.87085e-05
3.61057e-05
4.84344e-05
7.63803e-05
0.000115729
0.000151098
0.000177189
0.000195126
0.000206996
0.000214605
0.000219328
0.000222159
0.000223783
0.000224647
0.000225017
0.000225017
0.000224646
0.000223781
0.000222156
0.000219325
0.0002146
0.00020699
0.000195118
0.000177178
0.000151085
0.000115717
7.63898e-05
4.84317e-05
3.6117e-05
2.87122e-05
2.93489e-05
3.65892e-05
4.97658e-05
7.85442e-05
0.000119068
0.000154391
0.000180125
0.00019762
0.000209059
0.000216286
0.000220693
0.000223277
0.00022472
0.000225467
0.00022578
0.00022578
0.000225466
0.000224718
0.000223273
0.000220689
0.00021628
0.000209052
0.000197611
0.000180114
0.00015438
0.000119062
7.85573e-05
4.97634e-05
3.65977e-05
2.9352e-05
2.96717e-05
3.68743e-05
5.04505e-05
7.96344e-05
0.000120724
0.00015601
0.000181554
0.000198818
0.000210033
0.000217063
0.000221308
0.000223767
0.000225119
0.000225808
0.000226092
0.000226092
0.000225806
0.000225117
0.000223764
0.000221305
0.000217059
0.000210028
0.000198812
0.000181547
0.000156004
0.000120724
7.96501e-05
5.0447e-05
3.68681e-05
2.9674e-05
2.9671e-05
3.68758e-05
5.04525e-05
7.96402e-05
0.000120735
0.000156019
0.00018156
0.000198823
0.000210037
0.000217067
0.000221312
0.000223771
0.000225124
0.000225813
0.000226097
0.000226097
0.000225812
0.000225123
0.000223769
0.00022131
0.000217065
0.000210034
0.00019882
0.000181558
0.000156018
0.000120741
7.96581e-05
5.04492e-05
3.68706e-05
2.96728e-05
2.93465e-05
3.65874e-05
4.97712e-05
7.85617e-05
0.0001191
0.000154415
0.000180141
0.000197632
0.000209069
0.000216296
0.000220704
0.000223289
0.000224734
0.000225482
0.000225796
0.000225796
0.000225482
0.000224734
0.000223289
0.000220704
0.000216297
0.000209071
0.000197634
0.000180144
0.00015442
0.000119111
7.85811e-05
4.97691e-05
3.65941e-05
2.93483e-05
2.87045e-05
3.61025e-05
4.84435e-05
7.64092e-05
0.000115779
0.000151134
0.000177212
0.000195143
0.000207011
0.00021462
0.000219345
0.000222178
0.000223804
0.000224671
0.000225043
0.000225043
0.000224672
0.000223806
0.00022218
0.000219348
0.000214625
0.000207017
0.00019515
0.000177221
0.000151144
0.000115794
7.64293e-05
4.84412e-05
3.61104e-05
2.87061e-05
2.77532e-05
3.54072e-05
4.65122e-05
7.31475e-05
0.000110698
0.000146048
0.000172596
0.000191137
0.00020361
0.00021176
0.000216937
0.00022013
0.000222022
0.000223064
0.000223523
0.000223524
0.000223066
0.000222025
0.000220134
0.000216943
0.000211767
0.00020362
0.000191149
0.00017261
0.000146063
0.000110717
7.31704e-05
4.65088e-05
3.54141e-05
2.77546e-05
2.65047e-05
3.45016e-05
4.39487e-05
6.87955e-05
0.0001038
0.000138971
0.000166008
0.000185256
0.000198447
0.000207246
0.000212978
0.000216621
0.000218855
0.000220125
0.000220699
0.0002207
0.000220127
0.000218858
0.000216626
0.000212985
0.000207256
0.00019846
0.000185271
0.000166026
0.000138991
0.00010382
6.88156e-05
4.39398e-05
3.45063e-05
2.65058e-05
2.49748e-05
3.33786e-05
4.08748e-05
6.35029e-05
9.51361e-05
0.000129668
0.000157033
0.000176965
0.000190883
0.000200359
0.000206694
0.000210846
0.00021348
0.000215026
0.00021574
0.000215741
0.000215028
0.000213483
0.000210851
0.000206701
0.000200369
0.000190896
0.000176982
0.000157054
0.000129692
9.51593e-05
6.3523e-05
4.08693e-05
3.33809e-05
2.49756e-05
2.31823e-05
3.2008e-05
3.75186e-05
5.7501e-05
8.51598e-05
0.000117742
0.000145114
0.000165502
0.000179983
0.000190042
0.000196952
0.000201632
0.000204703
0.000206559
0.000207433
0.000207433
0.00020656
0.000204706
0.000201636
0.000196958