/*--------------------------------*- C++ -*----------------------------------*\
| =========                 |                                                 |
| \\      /  F ield         | OpenFOAM: The Open Source CFD Toolbox           |
|  \\    /   O peration     | Version:  2312                                  |
|   \\  /    A nd           | Website:  www.openfoam.com                      |
|    \\/     M anipulation  |                                                 |
\*---------------------------------------------------------------------------*/
FoamFile
{
    version     2.0;
    format      ascii;
    arch        "LSB;label=32;scalar=64";
    class       surfaceScalarField;
    location    "350";
    object      phi;
}
// * * * * * * * * * * * * * * * * * * * * * * * * * * * * * * * * * * * * * //

dimensions      [1 0 -1 0 0 0 0];

oriented        oriented;

internalField   nonuniform List<scalar> 
78300
(
-2.9739e-05
0.000259364
0.00752977
0.00288555
0.00117334
0.00974942
0.00299395
0.0045356
0.0149934
0.00337937
0.00513246
0.0196071
0.00366365
0.00579365
0.0241923
0.00381499
0.00636553
0.0285275
0.00382413
0.00686808
0.0325435
0.00369133
0.00728021
0.0362274
0.00341769
0.00760196
0.0395562
0.00302178
0.00784716
0.042479
0.00252734
0.00803196
0.0449573
0.00195713
0.00816824
0.0469659
0.00133199
0.00826384
0.0484873
0.00067115
0.00832442
0.0495088
-7.14114e-06
0.00835369
0.0500215
-0.000685109
0.00835352
0.0500214
-0.00134502
0.00832392
0.0495083
-0.00196863
0.00826303
0.0484866
-0.0025367
0.00816708
0.0469649
-0.00302843
0.00803048
0.0449561
-0.00342139
0.00784563
0.0424776
-0.00369192
0.00760039
0.0395547
-0.00382154
0.00727857
0.0362259
-0.00380977
0.00686693
0.032542
-0.00365795
0.0063664
0.0285261
-0.00337587
0.00579697
0.0241911
-0.00299339
0.00513618
0.0196063
-0.00288576
0.00453679
0.0149929
2.63086e-05
0.00117666
0.00974932
0.000255894
0.0075298
0.00316502
0.00441458
0.00970146
0.0054476
0.00392155
0.0178589
0.0065418
0.00705583
0.0248736
0.0068619
0.00791018
0.0306879
0.00695375
0.00850844
0.0359463
0.00686765
0.00900226
0.0408115
0.0066239
0.00941887
0.0452803
0.00621705
0.00976653
0.0493255
0.00564498
0.010042
0.0529258
0.00492154
0.0102487
0.0560564
0.00407369
0.010397
0.0586936
0.00313077
0.0104996
0.0608202
0.00211976
0.0105673
0.0624246
0.00106514
0.0106077
0.0634986
-1.05044e-05
0.0106265
0.0640368
-0.00108556
0.010626
0.0640365
-0.00213841
0.0106065
0.0634977
-0.00314655
0.0105652
0.0624231
-0.00408579
0.0104969
0.0608181
-0.00492945
0.0103938
0.0586911
-0.0056484
0.0102454
0.0560537
-0.00621648
0.0100392
0.052923
-0.00662071
0.00976485
0.049323
-0.00686364
0.00941897
0.0452782
-0.00695006
0.00900487
0.04081
-0.00686054
0.00851487
0.0359455
-0.00654433
0.00791795
0.0306877
-0.0054542
0.00706083
0.0248739
-0.00316623
0.00391905
0.0178593
0.00440972
0.00970165
0.00679083
0.00400015
0.0198902
0.00946794
0.0059138
0.0272574
0.0103247
0.00846524
0.035061
0.0101348
0.00922326
0.0413144
0.00961106
0.00962181
0.0466399
0.00898456
0.00992231
0.0513827
0.00829251
0.0101868
0.0556768
0.00752461
0.010426
0.0595445
0.0066661
0.0106313
0.0629749
0.00571299
0.0107944
0.0659505
0.00467352
0.0109144
0.0684546
0.00356332
0.0109972
0.0704731
0.00240063
0.0110503
0.0719956
0.00120363
0.011081
0.0730145
-9.94793e-06
0.0110947
0.073525
-0.00122277
0.0110939
0.0735245
-0.00241763
0.011079
0.0730132
-0.00357702
0.011047
0.0719935
-0.00468297
0.0109929
0.0704703
-0.00571774
0.0109098
0.0684514
-0.00666624
0.0107899
0.0659471
-0.00752083
0.0106278
0.0629717
-0.00828593
0.0104242
0.0595418
-0.00897692
0.0101877
0.0556749
-0.0096038
0.00992614
0.0513818
-0.0101278
0.00962838
0.0466401
-0.0103185
0.0092309
0.0413154
-0.00946328
0.00847064
0.0350621
-0.00678988
0.00591435
0.0272581
0.00399607
0.0198904
0.00693435
0.0045375
0.0279006
0.0100722
0.00678533
0.0368208
0.0110194
0.00898594
0.0445699
0.0108863
0.00960518
0.0507174
0.0102946
0.00990343
0.0558976
0.00952935
0.0100995
0.0604642
0.00868601
0.010268
0.06457
0.00778548
0.0104299
0.0682574
0.0068261
0.0105806
0.0715246
0.0058046
0.0107095
0.074358
0.00472274
0.0108102
0.0767426
0.00358823
0.0108824
0.0786656
0.00241261
0.0109297
0.0801165
0.00120939
0.0109572
0.0810879
-7.34343e-06
0.0109692
0.0815746
-0.00122336
0.0109683
0.0815741
-0.00242444
0.0109544
0.0810865
-0.00359671
0.0109254
0.0801143
-0.00472715
0.010877
0.0786627
-0.00580458
0.0108043
0.0767394
-0.00682191
0.0107039
0.0743549
-0.00777773
0.0105762
0.0715219
-0.00867609
0.0104279
0.0682554
-0.00951835
0.0102688
0.064569
-0.0102836
0.0101032
0.0604643
-0.0108757
0.00990945
0.0558985
-0.0110097
0.00961233
0.0507188
-0.0100645
0.00899203
0.0445711
-0.00692993
0.00678866
0.0368213
0.004538
0.0279004
0.00788683
0.00479021
0.0360791
0.0108012
0.00731596
0.0460371
0.0114499
0.00913379
0.0537079
0.0111947
0.00958584
0.0595324
0.0105517
0.00979255
0.0644692
0.00973398
0.0099186
0.0688508
0.00882708
0.0100259
0.072794
0.00786311
0.0101343
0.0763319
0.00685195
0.0102423
0.0794644
0.00579578
0.0103411
0.0821804
0.00469631
0.010423
0.0844663
0.00355811
0.0104845
0.0863102
0.00238868
0.0105263
0.0877018
0.00119764
0.010551
0.0886336
-4.10547e-06
0.0105618
0.0891006
-0.00120513
0.0105606
0.0891001
-0.00239419
0.0105476
0.0886323
-0.00356061
0.010521
0.0876997
-0.0046951
0.0104779
0.0863076
-0.00579072
0.0104159
0.0844636
-0.00684336
0.0103345
0.0821779
-0.00785185
0.0102372
0.0794625
-0.00881406
0.0101317
0.0763308
-0.00972033
0.0100263
0.0727938
-0.0105384
0.00992202
0.0688514
-0.0111823
0.0097983
0.0644704
-0.0114389
0.00959308
0.0595336
-0.0107928
0.00914175
0.0537087
-0.00788264
0.00732349
0.0460371
0.00479548
0.0360785
0.00856247
0.00486341
0.044053
0.0113092
0.00746749
0.0548695
0.0117328
0.00898399
0.0623407
0.011354
0.00931207
0.0678546
0.0106551
0.00944365
0.0725521
0.00980276
0.00951479
0.0767536
0.0088643
0.00957595
0.080547
0.00786977
0.00964365
0.0839524
0.00683292
0.00971672
0.086967
0.00575975
0.00978806
0.0895803
0.00465372
0.00985051
0.0917797
0.00351845
0.00989971
0.0935538
0.00235935
0.00993428
0.0948929
0.00118356
0.00995524
0.0957896
-5.94707e-07
0.00996437
0.096239
-0.00118417
0.00996303
0.0962386
-0.00235823
0.0099513
0.0957884
-0.00351475
0.00992823
0.0948911
-0.00464696
0.00989221
0.0935516
-0.00574991
0.00984255
0.0917775
-0.00682039
0.00978066
0.0895784
-0.00785534
0.00971108
0.0869657
-0.00884884
0.0096406
0.0839518
-0.00978727
0.00957619
0.0805471
-0.0106403
0.00951823
0.0767542
-0.0113406
0.00945004
0.0725529
-0.0117214
0.00932087
0.0678551
-0.0113006
0.00899484
0.0623406
-0.0085579
0.00747969
0.0548688
0.0048742
0.044052
0.00906234
0.00477172
0.0516995
0.0116243
0.00731938
0.0631633
0.0118938
0.00858196
0.0703925
0.0114336
0.00882522
0.0756396
0.0106954
0.00890319
0.0801287
0.0098204
0.00893408
0.0841645
0.00886442
0.00896039
0.0878187
0.00785466
0.00899599
0.0911024
0.00680544
0.00904029
0.0940098
0.00572452
0.00908747
0.09653
0.00461653
0.00913138
0.0986512
0.00348536
0.00916756
0.100362
0.00233548
0.00919385
0.101654
0.00117245
0.0092101
0.102519
2.85415e-06
0.00921707
0.102952
-0.00116624
0.0092156
0.102952
-0.00232793
0.00920586
0.102518
-0.0034758
0.00918733
0.101652
-0.00460468
0.00915958
0.10036
-0.00571045
0.00912301
0.0986493
-0.00678963
0.00907987
0.0965285
-0.00783773
0.00903461
0.0940087
-0.00884727
0.00899328
0.0911019
-0.00980368
0.00896121
0.0878186
-0.0106799
0.00893872
0.0841646
-0.0114198
0.00891146
0.0801286
-0.0118824
0.00883699
0.075639
-0.011616
0.00859703
0.0703913
-0.00905797
0.00733693
0.0631618
0.00478803
0.0516984
0.00942366
0.0045325
0.0588729
0.011815
0.00692061
0.0708137
0.0119708
0.00796636
0.0777983
0.0114603
0.00814964
0.0828153
0.0106995
0.00819251
0.087125
0.00981283
0.00819671
0.0910133
0.00884892
0.00819877
0.0945404
0.00783283
0.00821053
0.0977126
0.00677889
0.00823208
0.100522
0.00569556
0.00825903
0.102958
0.00458823
0.0082864
0.105008
0.00346115
0.00831013
0.106662
0.00231846
0.00832794
0.107911
0.00116497
0.00833905
0.108747
6.01769e-06
0.00834368
0.109167
-0.00115261
0.00834219
0.109166
-0.00230516
0.00833479
0.108747
-0.0034465
0.00832145
0.10791
-0.00457213
0.00830232
0.106661
-0.00567815
0.00827837
0.105007
-0.00676065
0.00825209
0.102957
-0.00781438
0.00822742
0.100521
-0.00883089
0.00820921
0.0977116
-0.00979588
0.00820151
0.0945395
-0.0106842
0.00820389
0.0910123
-0.011447
0.00820417
0.0871237
-0.0119601
0.00816575
0.0828135
-0.0118074
0.00798676
0.0777961
-0.00941984
0.00694396
0.0708116
0.00455387
0.0588717
0.0096932
0.00415752
0.0654339
0.0119277
0.00631419
0.0777307
0.0119942
0.0071707
0.0844849
0.0114499
0.0073093
0.089303
0.0106773
0.00733002
0.0934584
0.0097867
0.00731826
0.0972171
0.00882185
0.00730517
0.100631
0.0078059
0.00730061
0.103703
0.00675269
0.00730531
0.106425
0.00567086
0.00731632
0.108786
0.00456628
0.00732984
0.110773
0.00344345
0.0073426
0.112376
0.00230656
0.00735255
0.113587
0.00116
0.00735875
0.114398
8.61078e-06
0.00736106
0.114804
-0.0011426
0.00735969
0.114804
-0.00228866
0.00735485
0.114397
-0.0034249
0.00734672
0.113586
-0.00454711
0.00733577
0.112375
-0.00565136
0.00732321
0.110771
-0.00673324
0.00731117
0.108784
-0.00778704
0.00730293
0.106423
-0.00880409
0.00730208
0.103701
-0.00977051
0.0073113
0.100629
-0.010663
0.00732944
0.097215
-0.0114379
0.00734644
0.0934559
-0.0119847
0.00733085
0.0893001
-0.0119211
0.00719706
0.0844819
-0.00969005
0.00634337
0.0777283
0.0041833
0.0654327
0.00989252
0.00366346
0.0712671
0.0119891
0.00553532
0.0838296
0.0119843
0.0062236
0.0903773
0.0114152
0.00632761
0.0950268
0.010636
0.0063348
0.0990501
0.00974603
0.00631488
0.102697
0.0087849
0.00629345
0.106012
0.0077736
0.00627879
0.108996
0.00672505
0.00627198
0.111642
0.00564769
0.00627125
0.113937
0.00454755
0.00627396
0.11587
0.00342936
0.00627775
0.117429
0.0022975
0.00628099
0.118607
0.00115632
0.00628287
0.119395
1.0415e-05
0.00628323
0.119791
-0.00113547
0.00628213
0.119791
-0.00227658
0.0062798
0.119395
-0.00340848
0.00627654
0.118605
-0.00452688
0.00627288
0.117427
-0.00562755
0.00626985
0.115868
-0.00670583
0.0062692
0.113935
-0.00775569
0.00627326
0.11164
-0.00876865
0.00628448
0.108994
-0.00973168
0.00630432
0.106009
-0.0106237
0.00633138
0.102693
-0.011405
0.00635702
0.0990465
-0.0119766
0.00635534
0.0950229
-0.0119838
0.00625612
0.0903736
-0.00989013
0.00556994
0.083827
0.00369281
0.0712659
0.0100377
0.00306774
0.0762769
0.0120171
0.00461542
0.0890349
0.0119554
0.0051514
0.0954054
0.0113669
0.00522743
0.0999153
0.0105841
0.00522645
0.103828
0.00969715
0.00520375
0.10738
0.00874204
0.00517907
0.110612
0.0077378
0.0051591
0.113522
0.00669611
0.00514519
0.116103
0.00562497
0.00513645
0.118343
0.00453032
0.0051313
0.120229
0.00341708
0.00512824
0.121752
0.00228979
0.0051262
0.122901
0.00115294
0.00512468
0.123672
1.12402e-05
0.00512352
0.124058
-0.00113058
0.00512286
0.124057
-0.00226777
0.00512289
0.123671
-0.0033957
0.00512389
0.1229
-0.00450989
0.0051263
0.12175
-0.00560584
0.00513087
0.120227
-0.00667862
0.00513877
0.11834
-0.00772219
0.00515142
0.1161
-0.00872849
0.00517027
0.113519
-0.00968569
0.00519586
0.110608
-0.0105747
0.0052265
0.107376
-0.0113594
0.00525511
0.103824
-0.0119497
0.00526157
0.0999107
-0.0120133
0.00518989
0.0954014
-0.0100361
0.0046548
0.0890323
0.00309979
0.0762758
0.010141
0.00238904
0.0803824
0.0120254
0.00358337
0.0932816
0.0119196
0.003979
0.0995073
0.0113161
0.00403171
0.103906
0.0105307
0.00402622
0.10773
0.00964735
0.00400397
0.111206
0.00869885
0.00397942
0.114369
0.00770224
0.00395762
0.11722
0.00666804
0.00393997
0.119749
0.00560359
0.00392629
0.121944
0.00451462
0.00391588
0.123792
0.00340613
0.00390799
0.125285
0.00228284
0.00390213
0.126412
0.0011495
0.00389812
0.127167
1.09732e-05
0.00389601
0.127546
-0.00112778
0.00389592
0.127546
-0.0022618
0.00389806
0.127166
-0.00338622
0.00390261
0.126411
-0.00449627
0.00390985
0.125283
-0.00558714
0.00392013
0.12379
-0.00665374
0.00393403
0.12194
-0.00769022
0.00395222
0.119745
-0.00868906
0.0039752
0.117216
-0.00963962
0.00400287
0.114365
-0.0105248
0.00403344
0.111201
-0.0113117
0.00406146
0.107725
-0.0119164
0.00407202
0.103901
-0.0120234
0.00402283
0.0995031
-0.0101402
0.00362664
0.093279
0.00242289
0.0803814
0.0102115
0.00164706
0.0835188
0.0120241
0.00246699
0.0965159
0.0118859
0.0027308
0.102631
0.0112715
0.0027636
0.106946
0.0104843
0.00275597
0.110704
0.00960414
0.00273613
0.114121
0.0086615
0.00271376
0.117233
0.00767171
0.00269247
0.120039
0.00664422
0.00267351
0.122528
0.00558571
0.00265725
0.124689
0.00450167
0.00264365
0.12651
0.00339709
0.00263264
0.12798
0.00227688
0.00262427
0.12909
0.00114599
0.00261867
0.129834
9.57841e-06
0.00261607
0.130207
-0.00112715
0.00261666
0.130206
-0.00225895
0.00262063
0.129833
-0.00338066
0.00262805
0.129088
-0.00448718
0.00263893
0.127977
-0.0055735
0.00265328
0.126507
-0.00663446
0.0026711
0.124685
-0.00766437
0.00269238
0.122524
-0.00865635
0.00271694
0.120034
-0.00960081
0.00274414
0.117228
-0.0104823
0.00277232
0.114116
-0.0112704
0.00279749
0.110699
-0.0118853
0.00280946
0.106941
-0.0120238
0.0027791
0.102627
-0.0102115
0.00251309
0.0965133
0.00168178
0.0835179
0.0102555
0.000862279
0.0856369
0.0120201
0.00129372
0.098696
0.011861
0.00143108
0.104737
0.0112396
0.00144621
0.108996
0.0104515
0.00143795
0.112709
0.00957383
0.00142168
0.116088
0.00863551
0.00140275
0.119166
0.00765076
0.00138342
0.121941
0.00662814
0.0013648
0.124403
0.00557385
0.0013476
0.126541
0.00449316
0.00133236
0.128343
0.00339102
0.00131957
0.129798
0.00227247
0.0013097
0.130897
0.0011427
0.00130322
0.131633
7.08975e-06
0.00130051
0.132002
-0.00112889
0.00130186
0.132002
-0.0022597
0.00130739
0.131632
-0.0033799
0.00131704
0.130895
-0.00448417
0.00133061
0.129795
-0.00556727
0.0013477
0.12834
-0.00662403
0.00136785
0.126537
-0.00764896
0.00139045
0.124399
-0.00863563
0.00141477
0.121936
-0.00957533
0.00143982
0.11916
-0.0104537
0.00146412
0.116082
-0.011242
0.00148504
0.112704
-0.011863
0.00149669
0.108991
-0.0120215
0.00148272
0.104733
-0.0102562
0.00134146
0.0986936
0.000896931
0.0856362
0.0102769
5.55213e-05
0.0867042
0.012018
9.07385e-05
0.0997938
0.0118491
0.000104068
0.105797
0.0112248
0.000102696
0.110029
0.0104367
9.46424e-05
0.11372
0.00956067
8.26095e-05
0.117079
0.00862481
6.78709e-05
0.120139
0.00764272
5.13884e-05
0.122899
0.00662251
3.41184e-05
0.125348
0.00557009
1.70393e-05
0.127475
0.00449056
1.15686e-06
0.129267
0.00338891
-1.25675e-05
0.130714
0.00227026
-2.32456e-05
0.131807
0.00113997
-3.01448e-05
0.13254
3.60785e-06
-3.27091e-05
0.132907
-0.00113311
-3.06084e-05
0.132907
-0.00226445
-2.37579e-05
0.132539
-0.00338473
-1.23453e-05
0.131806
-0.00448843
3.17539e-06
0.130712
-0.00557022
2.20871e-05
0.129264
-0.00662489
4.34674e-05
0.127471
-0.00764704
6.62109e-05
0.125344
-0.00863056
8.91199e-05
0.122894
-0.00956718
0.000110951
0.120134
-0.0104432
0.000130439
0.117073
-0.0112306
0.000146267
0.113714
-0.0118537
0.000156646
0.110024
-0.0120211
0.000157847
0.105794
-0.0102783
0.000138946
0.0997916
8.9196e-05
0.0867038
0.0102777
-0.000752588
0.0867048
0.0120201
-0.00111473
0.099795
0.0118524
-0.00122575
0.105799
0.0112292
-0.00124359
0.11003
0.0104421
-0.00125126
0.113721
0.00956675
-0.00125874
0.11708
0.00863131
-0.0012689
0.12014
0.00764929
-0.00128208
0.1229
0.00662872
-0.00129753
0.125349
0.00557549
-0.00131402
0.127476
0.00449469
-0.00133012
0.129268
0.00339135
-0.00134439
0.130716
0.00227065
-0.00135559
0.131809
0.00113806
-0.00136272
0.132542
-6.9675e-07
-0.00136508
0.132909
-0.00113977
-0.00136228
0.132908
-0.00227326
-0.0013543
0.13254
-0.00339537
-0.00134142
0.131807
-0.00450044
-0.00132436
0.130713
-0.0055831
-0.00130413
0.129265
-0.00663806
-0.00128209
0.127472
-0.00765998
-0.0012598
0.125345
-0.00864275
-0.00123892
0.122895
-0.00957819
-0.00122088
0.120136
-0.0104527
-0.0012067
0.117075
-0.0112383
-0.00119636
0.113716
-0.0118594
-0.00118747
0.110026
-0.0120247
-0.00117112
0.105796
-0.0102797
-0.00106722
0.099793
-0.000720646
0.0867045
0.0102578
-0.00154141
0.0856386
0.0120263
-0.00229534
0.0986994
0.0118708
-0.0025337
0.104741
0.0112527
-0.00256911
0.109001
0.0104674
-0.00257683
0.112714
0.00959187
-0.00257983
0.116092
0.00865482
-0.0025854
0.11917
0.00767026
-0.0025953
0.121945
0.00664659
-0.00260903
0.124407
0.00558991
-0.00262509
0.126545
0.00450546
-0.00264156
0.128347
0.0033983
-0.00265653
0.129802
0.00227367
-0.00266838
0.130901
0.00113711
-0.00267585
0.131638
-5.62616e-06
-0.0026781
0.132007
-0.00114858
-0.00267473
0.132007
-0.0022858
-0.00266572
0.131637
-0.00341139
-0.0026515
0.130899
-0.00451973
-0.00263296
0.1298
-0.00560537
-0.00261144
0.128344
-0.00666304
-0.00258872
0.126542
-0.00768724
-0.00256688
0.124403
-0.00867171
-0.002548
0.12194
-0.00960791
-0.00253381
0.119165
-0.0104818
-0.002525
0.116088
-0.0112647
-0.00252006
0.11271
-0.01188
-0.00251219
0.108997
-0.0120322
-0.00247951
0.104739
-0.0102603
-0.00224956
0.0986978
-0.00151181
0.0856384
0.0102153
-0.00228996
0.0835215
0.0120343
-0.00342353
0.0965213
0.011902
-0.00379506
0.102638
0.0112929
-0.00385017
0.106954
0.0105102
-0.00385901
0.110711
0.00963354
-0.00385811
0.114128
0.00869297
-0.00385961
0.11724
0.00770353
-0.00386692
0.120045
0.00667436
-0.00387977
0.122534
0.00561198
-0.00389627
0.124695
0.00452185
-0.00391393
0.126516
0.00340912
-0.00393031
0.127986
0.00227902
-0.00394335
0.129097
0.00113707
-0.00395156
0.129841
-1.09525e-05
-0.00395398
0.130214
-0.00115906
-0.00395019
0.130214
-0.00230128
-0.0039402
0.12984
-0.00343176
-0.00392453
0.129095
-0.0045449
-0.00390423
0.127984
-0.00563533
-0.00388093
0.126513
-0.00669772
-0.00385688
0.124692
-0.00772646
-0.00383469
0.122531
-0.00871484
-0.00381706
0.120041
-0.00965364
-0.00380603
0.117236
-0.0105278
-0.00380202
0.114125
-0.0113073
-0.00380183
0.110708
-0.0119128
-0.00379379
0.106951
-0.0120411
-0.00374248
0.102636
-0.0102182
-0.0033804
0.09652
-0.00226319
0.0835215
0.0101462
-0.00297755
0.0803861
0.0120392
-0.00447125
0.0932888
0.0119413
-0.00498479
0.0995166
0.011345
-0.00506273
0.103915
0.0105657
-0.00507465
0.10774
0.00968709
-0.00507124
0.111214
0.00874144
-0.00507011
0.114377
0.00774535
-0.00507652
0.117228
0.00670895
-0.00509029
0.119756
0.00563934
-0.00510898
0.121951
0.0045422
-0.00512938
0.123801
0.00342272
-0.00514839
0.125294
0.00228609
-0.00516354
0.126422
0.00113778
-0.00517312
0.127177
-1.64354e-05
-0.00517612
0.127556
-0.0011706
-0.00517209
0.127556
-0.00231871
-0.00516111
0.127177
-0.00345499
-0.00514369
0.12642
-0.00457394
-0.005121
0.125292
-0.0056703
-0.00509493
0.123798
-0.00673881
-0.00506816
0.121949
-0.00777365
-0.005044
0.119754
-0.00876763
-0.00502582
0.117225
-0.00971055
-0.00501623
0.114374
-0.0105859
-0.00501545
0.111211
-0.0113613
-0.0050185
0.107737
-0.0119534
-0.00500814
0.103913
-0.0120468
-0.00493486
0.0995148
-0.0101493
-0.00443149
0.0932877
-0.00295391
0.0803862
0.0100442
-0.00358411
0.0762812
0.0120339
-0.00540981
0.0890432
0.011982
-0.00607742
0.0954161
0.0114023
-0.00618247
0.0999262
0.010627
-0.00620068
0.103839
0.00974581
-0.00619748
0.10739
0.00879429
-0.0061967
0.11062
0.00779078
-0.00620524
0.113531
0.00674654
-0.00622292
0.116112
0.00566919
-0.0062465
0.118352
0.00456462
-0.00627186
0.120239
0.00343796
-0.00629521
0.121762
0.00229432
-0.00631368
0.122913
0.00113911
-0.0063254
0.123684
-2.18765e-05
-0.00632944
0.124071
-0.00118262
-0.00632539
0.12407
-0.00233711
-0.00631332
0.123683
-0.00347958
-0.00629374
0.122912
-0.00460467
-0.00626778
0.121761
-0.00570729
-0.00623747
0.120237
-0.00678229
-0.00620594
0.11835
-0.00782378
-0.00617718
0.11611
-0.00882407
-0.00615549
0.113528
-0.00977192
-0.0061442
0.110618
-0.0106489
-0.0061436
0.107387
-0.0114197
-0.00614693
0.103837
-0.0119948
-0.00613085
0.0999244
-0.0120418
-0.00603098
0.0954147
-0.0100473
-0.005374
0.0890424
-0.00356377
0.0762814
0.00990005
-0.00409054
0.0712719
0.0120084
-0.00620933
0.0838385
0.0120148
-0.00704669
0.0903883
0.0114555
-0.00718506
0.0950377
0.010685
-0.00721448
0.0990601
0.00980184
-0.0072166
0.102706
0.00884497
-0.007221
0.10602
0.00783476
-0.00723634
0.109005
0.00678346
-0.00726217
0.111651
0.00569914
-0.00729423
0.113947
0.00458769
-0.00732736
0.11588
0.00345414
-0.00735704
0.117441
0.00230347
-0.0073801
0.11862
0.00114112
-0.00739477
0.11941
-2.7036e-05
-0.00740026
0.119806
-0.00119477
-0.00739638
0.119806
-0.00235588
-0.00738319
0.119409
-0.00350455
-0.007361
0.118619
-0.00463546
-0.00733078
0.11744
-0.00574374
-0.00729449
0.115879
-0.00682446
-0.00725555
0.113945
-0.00787178
-0.00721869
0.111649
-0.00887767
-0.00718923
0.109003
-0.00982988
-0.00717153
0.106018
-0.0107081
-0.00716611
0.102704
-0.0114736
-0.00716445
0.0990587
-0.0120277
-0.00713741
0.0950366
-0.0120162
-0.00700449
0.0903875
-0.00990306
-0.0061778
0.0838379
-0.00407349
0.0712722
0.00970151
-0.00447888
0.065439
0.0119485
-0.00683704
0.0777395
0.012027
-0.00786479
0.0844953
0.0114936
-0.00804611
0.0893129
0.0107304
-0.00809514
0.093467
0.00984759
-0.00811037
0.0972247
0.00888774
-0.00812678
0.100638
0.00787331
-0.00815526
0.10371
0.00681738
-0.0081947
0.106434
0.00572815
-0.00823952
0.108796
0.00461128
-0.00828346
0.110785
0.00347161
-0.00832143
0.11239
0.00231407
-0.00835023
0.113602
0.00114421
-0.00836843
0.114415
-3.17307e-05
-0.00837569
0.114822
-0.00120706
-0.00837216
0.114822
-0.0023752
-0.00835781
0.114414
-0.00352996
-0.00833275
0.113601
-0.004666
-0.00829736
0.112389
-0.00577854
-0.00825337
0.110783
-0.00686297
-0.00820412
0.108794
-0.00791373
-0.00815496
0.106432
-0.00892278
-0.00811229
0.103709
-0.00987705
-0.00808183
0.100637
-0.0107543
-0.0080646
0.0972238
-0.0115118
-0.00805002
0.0934663
-0.0120397
-0.00800338
0.0893124
-0.011956
-0.00782743
0.0844949
-0.00970423
-0.00680997
0.0777392
-0.00446491
0.0654393
0.00943231
-0.00473171
0.0588779
0.0118361
-0.00725621
0.0708216
0.0120042
-0.00850146
0.0778071
0.0115051
-0.00874088
0.082823
0.0107548
-0.0088226
0.0871314
0.00987666
-0.00886185
0.0910188
0.00891861
-0.00889981
0.0945459
0.00790461
-0.00894924
0.097719
0.00684819
-0.00900847
0.10053
0.00575722
-0.0090705
0.102968
0.00463701
-0.00912812
0.105021
0.00349212
-0.00917593
0.106677
0.00232754
-0.00921112
0.107928
0.00114928
-0.00923306
0.108766
-3.57365e-05
-0.00924218
0.109186
-0.00122004
-0.00923907
0.109185
-0.00239615
-0.00922378
0.108765
-0.00355731
-0.00919581
0.107927
-0.0046977
-0.00915485
0.106676
-0.0058126
-0.00910173
0.105019
-0.00689768
-0.00903947
0.102967
-0.00794789
-0.00897363
0.100529
-0.00895552
-0.00891161
0.0977179
-0.00990721
-0.00886047
0.0945452
-0.010779
-0.00882196
0.0910183
-0.0115232
-0.00878334
0.0871311
-0.0120165
-0.00870391
0.0828229
-0.011843
-0.00846945
0.0778071
-0.00943459
-0.00723377
0.0708216
-0.00472044
0.0588783
0.00907054
-0.00483607
0.051704
0.0116442
-0.00742237
0.0631696
0.0119258
-0.00892185
0.0703988
0.0114775
-0.00924454
0.0756445
0.0107506
-0.00937787
0.0801322
0.00988526
-0.00945528
0.0841676
0.00893611
-0.00952593
0.0878225
0.00792911
-0.009605
0.0911078
0.00687774
-0.0096904
0.0940175
0.00578915
-0.00977379
0.0965404
0.00466795
-0.00984724
0.0986644
0.00351843
-0.00990558
0.100378
0.00234604
-0.00994711
0.101672
0.00115754
-0.00997241
0.102538
-3.88845e-05
-0.00998321
0.102973
-0.00123449
-0.00998061
0.102972
-0.00242053
-0.00996469
0.102537
-0.00358905
-0.0099343
0.10167
-0.00473341
-0.00988799
0.100376
-0.00584854
-0.00982516
0.0986626
-0.00693039
-0.00974781
0.0965387
-0.0079747
-0.0096612
0.0940161
-0.00897451
-0.00957349
0.0911067
-0.00991663
-0.00949296
0.0878218
-0.0107751
-0.00942201
0.0841673
-0.0114954
-0.00934516
0.0801322
-0.0119375
-0.00921392
0.0756447
-0.0116505
-0.00889567
0.0703991
-0.00907236
-0.00740463
0.0631698
-0.00482709
0.0517045
0.00856954
-0.00477357
0.0440566
0.0113264
-0.00728515
0.0548736
0.0117617
-0.00908659
0.062344
0.0113954
-0.00953247
0.0678562
0.0107088
-0.00973964
0.0725528
0.00986733
-0.00987081
0.0767544
0.00893661
-0.00998583
0.0805492
0.00794554
-0.0101037
0.0839569
0.00690676
-0.0102216
0.0869745
0.00582595
-0.0103298
0.0895909
0.00470654
-0.0104201
0.0917935
0.00355287
-0.0104885
0.0935704
0.00237119
-0.0105354
0.0949118
0.00116999
-0.0105633
0.0958101
-4.09537e-05
-0.0105753
0.0962604
-0.00125099
-0.0105732
0.0962601
-0.00244961
-0.0105572
0.0958092
-0.00362709
-0.0105252
0.0949103
-0.00477528
-0.0104746
0.0935685
-0.00588811
-0.0104026
0.0917915
-0.00696162
-0.0103092
0.089589
-0.00799272
-0.0101983
0.0869728
-0.00897608
-0.0100786
0.0839556
-0.00989913
-0.00995968
0.0805483
-0.0107334
-0.00984433
0.076754
-0.011413
-0.00971393
0.0725527
-0.0117729
-0.0095085
0.0678565
-0.0113321
-0.00906647
0.0623445
-0.0085714
-0.00727173
0.0548741
-0.00476679
0.044057
0.00789248
-0.00452892
0.0360815
0.0108146
-0.00676412
0.046039
0.0114745
-0.00895029
0.0537083
0.0112325
-0.00956389
0.0595312
0.0106033
-0.00986264
0.0644675
0.00979747
-0.0100628
0.06885
0.00889916
-0.0102379
0.0727954
0.00793898
-0.0104073
0.0763362
0.00692585
-0.0105655
0.0794721
0.00586188
-0.0107015
0.0821914
0.00474912
-0.0108082
0.0844805
0.00359281
-0.0108852
0.086327
0.00240145
-0.010936
0.0877208
0.00118586
-0.0109656
0.0886542
-4.16752e-05
-0.0109784
0.089122
-0.00126833
-0.0109769
0.0891217
-0.00248131
-0.010961
0.0886532
-0.00366845
-0.0109285
0.0877192
-0.00481916
-0.0108748
0.086325
-0.00592515
-0.0107952
0.0844783
-0.00698168
-0.0106861
0.0821892
-0.00798678
-0.0105483
0.0794701
-0.00893891
-0.0103886
0.0763345
-0.00982935
-0.0102184
0.0727941
-0.0106276
-0.0100432
0.0688493
-0.0112498
-0.00984368
0.0644673
-0.0114853
-0.00954652
0.0595313
-0.0108201
-0.00893597
0.0537088
-0.00789457
-0.00675469
0.0460395
-0.0045245
0.0360818
0.00693583
-0.00399416
0.0279017
0.0100808
-0.00589962
0.0368207
0.0110392
-0.00843901
0.0445682
0.0109205
-0.00919349
0.0507144
0.0103439
-0.00959342
0.0558948
0.00959158
-0.0098974
0.0604631
0.00875692
-0.0101669
0.0645716
0.00785969
-0.0104116
0.0682621
0.00689795
-0.010622
0.0715327
0.0058684
-0.0107896
0.0743692
0.00477352
-0.0109134
0.0767566
0.00362183
-0.010999
0.0786818
0.00242575
-0.0110542
0.0801347
0.00119981
-0.0110863
0.0811075
-4.07019e-05
-0.0111004
0.081595
-0.00128039
-0.0110994
0.0815947
-0.0025038
-0.0110833
0.0811065
-0.00369586
-0.0110492
0.0801332
-0.00484215
-0.0109921
0.0786799
-0.0059305
-0.0109046
0.0767543
-0.0069526
-0.0107793
0.0743669
-0.00790655
-0.0106103
0.0715304
-0.00879573
-0.0103989
0.0682601
-0.00962255
-0.0101537
0.06457
-0.0103674
-0.00988411
0.060462
-0.0109373
-0.00958052
0.0558942
-0.0110495
-0.00918236
0.0507142
-0.0100862
-0.00842995
0.0445684
-0.00693851
-0.00589329
0.0368211
-0.00399268
0.027902
0.00679183
-0.00440925
0.0198899
0.00947226
-0.00390929
0.027256
0.0103403
-0.00703856
0.0350586
0.0101662
-0.00789324
0.0413115
0.00965834
-0.00849373
0.0466378
0.00904399
-0.00898937
0.0513826
0.00835909
-0.00940869
0.0556793
0.00759331
-0.00975957
0.0595498
0.00673162
-0.0100377
0.062983
0.0057705
-0.0102465
0.0659612
0.00471902
-0.0103966
0.0684672
0.00359357
-0.0105006
0.0704874
0.00241312
-0.0105692
0.0720113
0.00119673
-0.0106104
0.0730313
-3.70783e-05
-0.0106294
0.0735424
-0.00127012
-0.0106288
0.0735421
-0.00248434
-0.0106087
0.0730305
-0.00366118
-0.0105665
0.07201
-0.00478176
-0.0104968
0.0704857
-0.00582732
-0.0103918
0.0684653
-0.00678168
-0.0102408
0.065959
-0.0076361
-0.0100311
0.0629809
-0.00839451
-0.00975231
0.0595479
-0.00907205
-0.00940117
0.0556777
-0.00967956
-0.00898174
0.0513814
-0.0101813
-0.0084862
0.046637
-0.0103498
-0.00788729
0.0413111
-0.00947646
-0.00703472
0.0350586
-0.00679329
-0.0039057
0.027256
-0.00440935
0.01989
0.00316394
-0.000252598
0.00970111
0.00545756
-0.00117065
0.0178574
0.00656023
-0.00452512
0.024872
0.00689106
-0.00512499
0.0306866
0.00699441
-0.00579033
0.0359462
0.00691647
-0.0063623
0.040813
0.00667676
-0.00686531
0.0452837
0.00626991
-0.00727844
0.0493307
0.00569448
-0.00760116
0.0529326
0.00496458
-0.00784682
0.0560647
0.00410744
-0.00803183
0.0587032
0.00315324
-0.00816836
0.0608307
0.00212958
-0.00826415
0.0624357
0.00106131
-0.00832483
0.0635101
-2.8508e-05
-0.00835415
0.0640485
-0.00111779
-0.00835399
0.0640484
-0.00218439
-0.00832432
0.0635095
-0.00320537
-0.00826328
0.0624348
-0.0041559
-0.00816713
0.0608295
-0.00500844
-0.00803026
0.0587018
-0.0057331
-0.00784485
0.0560632
-0.00630288
-0.00759868
0.0529311
-0.00670372
-0.00727573
0.0493293
-0.00693715
-0.00686282
0.0452824
-0.0070096
-0.00635922
0.040812
-0.00690066
-0.00578763
0.0359454
-0.00656436
-0.00512391
0.030686
-0.00545885
-0.00452371
0.0248715
-0.00316286
-0.00116907
0.017857
-0.000251545
0.00970104
-2.2568e-05
0.00752936
0.00289579
0.00974904
0.00301467
0.0149934
0.003407
0.0196076
0.00369324
0.0241936
0.0038456
0.0285297
0.00385456
0.0325464
0.00371988
0.036231
0.00344281
0.0395604
0.00304251
0.0424837
0.00254308
0.0449624
0.00196732
0.0469713
0.00133626
0.048493
0.000669217
0.0495145
-1.54634e-05
0.0500275
-0.000699942
0.0500274
-0.00136635
0.0495144
-0.00199633
0.0484928
-0.00257056
0.0469711
-0.00306805
0.044962
-0.00346593
0.0424832
-0.00373999
0.0395599
-0.00387133
0.0362304
-0.00385918
0.0325457
-0.00370303
0.028529
-0.00341344
0.024193
-0.0030195
0.0196071
-0.00289883
0.014993
2.13438e-05
0.00974881
0.00752919
0.000750522
0.000414223
0.00636502
0.0010545
0.000911614
0.00853382
0.000826789
0.00184788
0.0133732
0.000746068
0.00215737
0.0175304
0.00071722
0.00261017
0.0216109
0.000750273
0.00305045
0.025444
0.000803485
0.00349613
0.0289941
0.000846058
0.00392774
0.0322571
0.000855384
0.00433203
0.0352148
0.000819312
0.00469693
0.0378181
0.000734776
0.00501333
0.0400285
0.00060473
0.00527494
0.041821
0.000436503
0.00547626
0.0431793
0.000240681
0.00561292
0.0440917
2.99988e-05
0.00568218
0.04455
-0.000181684
0.00568273
0.0445503
-0.000380532
0.00561463
0.0440925
-0.000553631
0.00547902
0.0431807
-0.000690258
0.00527872
0.0418229
-0.000782992
0.00501816
0.0400306
-0.000828483
0.00470261
0.0378204
-0.000829349
0.00433837
0.0352172
-0.000796842
0.00393415
0.0322592
-0.00075219
0.00350151
0.0289958
-0.000725653
0.00305445
0.0254451
-0.000756639
0.00261064
0.0216115
-0.000832291
0.00215152
0.0175304
-0.00105774
0.00184564
0.0133728
-0.000749171
0.00090761
0.00853314
0.000416554
0.00636408
0.00103209
0.000682589
0.00840101