/*--------------------------------*- C++ -*----------------------------------*\
| =========                 |                                                 |
| \\      /  F ield         | OpenFOAM: The Open Source CFD Toolbox           |
|  \\    /   O peration     | Version:  2312                                  |
|   \\  /    A nd           | Website:  www.openfoam.com                      |
|    \\/     M anipulation  |                                                 |
\*---------------------------------------------------------------------------*/
FoamFile
{
    version     2.0;
    format      ascii;
    arch        "LSB;label=32;scalar=64";
    class       volScalarField;
    location    "350";
    object      T;
}
// * * * * * * * * * * * * * * * * * * * * * * * * * * * * * * * * * * * * * //

dimensions      [0 0 0 1 0 0 0];

internalField   nonuniform List<scalar> 
27000
(
426.523
355.99
347.352
343.159
342.425
342.489
342.69
342.92
343.152
343.354
343.522
343.656
343.756
343.822
343.855
343.855
343.822
343.756
343.656
343.522
343.355
343.152
342.921
342.691
342.49
342.426
343.16
347.355
355.996
426.543
335.759
354.596
348.576
346.928
346.592
346.739
346.942
347.113
347.249
347.358
347.443
347.507
347.553
347.584
347.599
347.599
347.584
347.554
347.508
347.444
347.36
347.251
347.114
346.944
346.741
346.595
346.931
348.583
354.606
335.763
342.271
345.592
348.2
347.996
347.838
347.839
347.9
347.96
348.006
348.041
348.067
348.087
348.101
348.111
348.115
348.116
348.111
348.102
348.088
348.069
348.043
348.008
347.963
347.903
347.843
347.843
348.002
348.208
345.599
342.275
342.213
346.072
347.695
348.028
348.049
348.053
348.076
348.106
348.13
348.149
348.162
348.171
348.178
348.182
348.185
348.185
348.183
348.179
348.173
348.164
348.151
348.133
348.109
348.08
348.057
348.055
348.035
347.702
346.077
342.216
342.63
346.586
347.8
348.045
348.1
348.114
348.126
348.141
348.156
348.167
348.175
348.181
348.185
348.187
348.189
348.189
348.188
348.186
348.183
348.178
348.17
348.159
348.145
348.13
348.118
348.106
348.05
347.806
346.59
342.632
343.05
346.939
347.911
348.09
348.131
348.142
348.147
348.154
348.161
348.168
348.173
348.176
348.179
348.18
348.181
348.182
348.181
348.18
348.178
348.175
348.171
348.165
348.158
348.151
348.146
348.136
348.095
347.916
346.942
343.051
343.447
347.186
347.985
348.125
348.155
348.159
348.16
348.161
348.163
348.166
348.168
348.17
348.172
348.172
348.173
348.173
348.173
348.173
348.172
348.171
348.168
348.166
348.164
348.163
348.163
348.159
348.129
347.988
347.188
343.447
343.792
347.369
348.037
348.149
348.17
348.171
348.167
348.165
348.164
348.164
348.165
348.165
348.166
348.166
348.167
348.167
348.167
348.167
348.167
348.167
348.166
348.167
348.168
348.171
348.174
348.173
348.152
348.039
347.37
343.792
344.086
347.508
348.075
348.166
348.18
348.177
348.172
348.167
348.164
348.163
348.162
348.162
348.162
348.163
348.163
348.163
348.163
348.164
348.164
348.164
348.165
348.167
348.17
348.174
348.18
348.182
348.167
348.076
347.508
344.086
344.331
347.614
348.105
348.178
348.186
348.181
348.174
348.168
348.164
348.162
348.161
348.161
348.16
348.161
348.161
348.161
348.161
348.161
348.162
348.163
348.164
348.166
348.17
348.176
348.183
348.187
348.179
348.105
347.613
344.33
344.525
347.694
348.128
348.187
348.19
348.183
348.175
348.169
348.164
348.162
348.16
348.16
348.16
348.16
348.16
348.16
348.16
348.16
348.161
348.161
348.163
348.166
348.17
348.176
348.184
348.19
348.187
348.127
347.693
344.524
344.673
347.752
348.144
348.193
348.193
348.184
348.175
348.168
348.164
348.161
348.16
348.159
348.159
348.159
348.16
348.16
348.16
348.16
348.16
348.161
348.162
348.165
348.169
348.175
348.184
348.192
348.192
348.143
347.75
344.671
344.778
347.792
348.156
348.197
348.194
348.184
348.175
348.168
348.163
348.161
348.16
348.159
348.159
348.159
348.159
348.16
348.16
348.159
348.16
348.16
348.161
348.164
348.168
348.174
348.183
348.193
348.195
348.154
347.79
344.777
344.846
347.817
348.163
348.199
348.195
348.184
348.174
348.167
348.163
348.16
348.159
348.159
348.159
348.159
348.159
348.159
348.159
348.159
348.159
348.159
348.16
348.163
348.167
348.173
348.182
348.193
348.197
348.16
347.814
344.844
344.88
347.829
348.166
348.2
348.195
348.183
348.174
348.167
348.162
348.16
348.159
348.159
348.159
348.159
348.159
348.159
348.159
348.159
348.158
348.159
348.159
348.161
348.165
348.172
348.181
348.192
348.197
348.162
347.826
344.878
344.88
347.829
348.166
348.2
348.194
348.183
348.173
348.166
348.162
348.16
348.158
348.158
348.158
348.158
348.158
348.158
348.158
348.158
348.158
348.158
348.159
348.161
348.165
348.171
348.18
348.191
348.196
348.161
347.825
344.877
344.846
347.817
348.162
348.198
348.193
348.182
348.173
348.166
348.162
348.159
348.158
348.157
348.157
348.157
348.158
348.157
348.157
348.157
348.157
348.157
348.158
348.16
348.164
348.17
348.179
348.189
348.194
348.157
347.812
344.844
344.778
347.791
348.154
348.195
348.192
348.182
348.173
348.166
348.161
348.159
348.157
348.157
348.157
348.157
348.157
348.157
348.157
348.156
348.156
348.156
348.157
348.159
348.163
348.17
348.178
348.188
348.19
348.149
347.786
344.775
344.672
347.751
348.142
348.19
348.19
348.181
348.172
348.166
348.161
348.158
348.157
348.156
348.156
348.156
348.156
348.156
348.156
348.156
348.156
348.156
348.157
348.159
348.163
348.169
348.177
348.185
348.185
348.137
347.746
344.669
344.524
347.692
348.125
348.184
348.187
348.18
348.172
348.165
348.161
348.158
348.157
348.156
348.156
348.156
348.156
348.156
348.156
348.156
348.156
348.156
348.157
348.16
348.163
348.169
348.176
348.182
348.178
348.12
347.687
344.521
344.33
347.612
348.102
348.174
348.182
348.178
348.171
348.165
348.161
348.159
348.158
348.157
348.157
348.157
348.157
348.157
348.157
348.157
348.157
348.157
348.158
348.16
348.164
348.168
348.174
348.178
348.169
348.096
347.607
344.327
344.085
347.506
348.072
348.162
348.176
348.174
348.169
348.164
348.161
348.16
348.159
348.159
348.159
348.159
348.159
348.159
348.159
348.159
348.159
348.159
348.16
348.161
348.163
348.167
348.171
348.173
348.157
348.067
347.5
344.082
343.79
347.367
348.033
348.145
348.167
348.168
348.165
348.162
348.161
348.162
348.162
348.162
348.163
348.163
348.163
348.163
348.163
348.163
348.163
348.163
348.162
348.162
348.163
348.164
348.166
348.164
348.142
348.028
347.361
343.787
343.445
347.183
347.982
348.122
348.152
348.157
348.158
348.159
348.162
348.164
348.166
348.168
348.169
348.169
348.17
348.17
348.17
348.169
348.169
348.167
348.166
348.163
348.161
348.159
348.158
348.151
348.12
347.978
347.179
343.442
343.049
346.936
347.908
348.087
348.13
348.141
348.147
348.154
348.161
348.167
348.172
348.175
348.177
348.178
348.179
348.179
348.178
348.178
348.176
348.173
348.169
348.163
348.156
348.149
348.143
348.131
348.087
347.906
346.933
343.045
342.629
346.584
347.798
348.043
348.1
348.115
348.127
348.142
348.157
348.167
348.175
348.18
348.184
348.186
348.187
348.187
348.186
348.184
348.181
348.177
348.17
348.159
348.146
348.131
348.119
348.104
348.045
347.798
346.581
342.625
342.212
346.07
347.694
348.029
348.052
348.056
348.079
348.108
348.132
348.15
348.163
348.172
348.178
348.182
348.184
348.184
348.182
348.178
348.172
348.164
348.152
348.135
348.112
348.085
348.062
348.058
348.034
347.697
346.07
342.209
342.27
345.591
348.201
348
347.843
347.845
347.905
347.964
348.009
348.043
348.069
348.088
348.102
348.111
348.116
348.116
348.111
348.102
348.089
348.07
348.044
348.011
347.967
347.91
347.851
347.851
348.009
348.209
345.593
342.268
335.757
354.599
348.581
346.934
346.599
346.745
346.947
347.116
347.253
347.361
347.445
347.509
347.556
347.586
347.601
347.601
347.586
347.555
347.509
347.445
347.361
347.254
347.119
346.951
346.751
346.607
346.945
348.594
354.611
335.755
426.534
355.998
347.36
343.165
342.43
342.492
342.693
342.922
343.154
343.356
343.523
343.657
343.757
343.824
343.857
343.857
343.824
343.757
343.657
343.523
343.356
343.154
342.923
342.694
342.495
342.433
343.171
347.37
356.013
426.563
447.641
363.344
347.587
339.114
336.569
336.012
336.013
336.181
336.41
336.64
336.838
336.995
337.112
337.19
337.229
337.229
337.189
337.111
336.993
336.835
336.637
336.407
336.178
336.01
336.01
336.569
339.116
347.59
363.347
447.632
332.355
361.291
352.261
346.926
344.096
343.269
343.299
343.575
343.877
344.145
344.362
344.527
344.646
344.722
344.759
344.759
344.721
344.643
344.524
344.358
344.14
343.872
343.57
343.297
343.268
344.097
346.928
352.259
361.284
332.347
337.048
343.704
349.424
348.824
347.544
346.843
346.655
346.698
346.806
346.914
347.004
347.073
347.122
347.153
347.168
347.167
347.151
347.119
347.069
346.999
346.909
346.801
346.694
346.652
346.843
347.544
348.822
349.419
343.699
337.044
336.052
341.885
346.381
347.949
348.02
347.804
347.671
347.643
347.666
347.703
347.738
347.766
347.786
347.798
347.804
347.803
347.796
347.783
347.762
347.733
347.698
347.662
347.639
347.67
347.803
348.019
347.946
346.377
341.882
336.05
336.445
342.326
346.007
347.463
347.905
347.971
347.949
347.933
347.936
347.949
347.964
347.977
347.986
347.992
347.995
347.994
347.991
347.984
347.973
347.96
347.945
347.932
347.93
347.947
347.97
347.904
347.46
346.003
342.324
336.443
336.816
343.135
346.32
347.444
347.848
347.983
348.019
348.026
348.031
348.038
348.046
348.053
348.058
348.061
348.062
348.062
348.059
348.055
348.05
348.042
348.035
348.028
348.024
348.017
347.981
347.846
347.441
346.318
343.132
336.814
337.217
343.789
346.644
347.547
347.865
347.991
348.04
348.059
348.067
348.073
348.078
348.082
348.085
348.086
348.087
348.086
348.085
348.082
348.079
348.075
348.07
348.065
348.056
348.038
347.988
347.862
347.544
346.641
343.786
337.215
337.628
344.289
346.883
347.645
347.903
348.007
348.053
348.073
348.082
348.087
348.09
348.092
348.094
348.094
348.094
348.094
348.093
348.092
348.09
348.087
348.084
348.079
348.07
348.05
348.004
347.9
347.642
346.88
344.287
337.627
338
344.676
347.057
347.72
347.938
348.025
348.063
348.081
348.089
348.093
348.094
348.095
348.095
348.095
348.095
348.095
348.094
348.094
348.093
348.092
348.09
348.086
348.078
348.06
348.021
347.934
347.717
347.053
344.674
337.999
338.318
344.973
347.184
347.776
347.966
348.041
348.073
348.087
348.093
348.095
348.095
348.095
348.095
348.094
348.094
348.093
348.093
348.093
348.093
348.092
348.092
348.09
348.084
348.069
348.037
347.962
347.773
347.181
344.971
338.318
338.584
345.199
347.277
347.818
347.988
348.054
348.081
348.092
348.095
348.096
348.095
348.094
348.093
348.092
348.092
348.091
348.091
348.091
348.092
348.092
348.093
348.092
348.088
348.077
348.05
347.985
347.815
347.275
345.199
338.585
338.798
345.369
347.346
347.849
348.005
348.064
348.087
348.095
348.097
348.097
348.095
348.094
348.092
348.091
348.091
348.09
348.09
348.091
348.091
348.093
348.094
348.094
348.092
348.083
348.06
348.002
347.846
347.344
345.369
338.798
338.958
345.491
347.394
347.871
348.018
348.072
348.092
348.099
348.099
348.098
348.096
348.094
348.092
348.091
348.09
348.09
348.09
348.091
348.092
348.093
348.095
348.096
348.095
348.089
348.069
348.015
347.869
347.393
345.492
338.959
339.064
345.57
347.426
347.886
348.027
348.077
348.096
348.101
348.101
348.099
348.096
348.094
348.093
348.091
348.091
348.09
348.09
348.091
348.092
348.094
348.096
348.098
348.098
348.093
348.075
348.025
347.885
347.426
345.572
339.066
339.118
345.61
347.442
347.895
348.032
348.081
348.099
348.103
348.103
348.1
348.098
348.095
348.094
348.092
348.092
348.091
348.092
348.092
348.094
348.096
348.098
348.101
348.101
348.097
348.079
348.031
347.894
347.443
345.612
339.12
339.118
345.612
347.444
347.897
348.034
348.083
348.101
348.105
348.104
348.102
348.099
348.097
348.095
348.094
348.093
348.093
348.093
348.094
348.095
348.098
348.1
348.103
348.104
348.099
348.082
348.034
347.897
347.446
345.614
339.121
339.066
345.575
347.432
347.893
348.033
348.083
348.101
348.106
348.106
348.104
348.101
348.099
348.097
348.096
348.095
348.095
348.095
348.096
348.098
348.1
348.102
348.105
348.105
348.101
348.083
348.033
347.894
347.434
345.578
339.069
338.961
345.498
347.404
347.881
348.028
348.081
348.101
348.107
348.107
348.105
348.103
348.101
348.099
348.098
348.098
348.098
348.098
348.098
348.1
348.102
348.104
348.106
348.106
348.101
348.082
348.029
347.884
347.407
345.502
338.964
338.803
345.379
347.359
347.863
348.018
348.076
348.098
348.106
348.107
348.106
348.104
348.103
348.102
348.101
348.101
348.101
348.101
348.101
348.102
348.103
348.105
348.107
348.106
348.099
348.077
348.021
347.866
347.363
345.383
338.806
338.591
345.212
347.293
347.835
348.004
348.068
348.093
348.103
348.106
348.106
348.106
348.105
348.105
348.104
348.104
348.104
348.104
348.104
348.104
348.105
348.106
348.106
348.104
348.095
348.07
348.007
347.838
347.298
345.217
338.595
338.327
344.988
347.202
347.795
347.983
348.056
348.086
348.099
348.104
348.106
348.106
348.107
348.107
348.108
348.108
348.107
348.107
348.106
348.106
348.105
348.105
348.104
348.099
348.087
348.058
347.987
347.799
347.208
344.993
338.331
338.01
344.692
347.077
347.74
347.955
348.039
348.076
348.092
348.099
348.103
348.105
348.107
348.109
348.11
348.11
348.11
348.109
348.108
348.106
348.104
348.102
348.099
348.092
348.077
348.042
347.959
347.745
347.083
344.698
338.014
337.64
344.307
346.904
347.664
347.918
348.019
348.062
348.081
348.09
348.096
348.101
348.105
348.108
348.11
348.111
348.11
348.109
348.106
348.103
348.099
348.094
348.089
348.081
348.063
348.021
347.922
347.67
346.911
344.313
337.644
337.229
343.807
346.664
347.563
347.877
347.999
348.046
348.064
348.073
348.08
348.087
348.094
348.099
348.102
348.103
348.103
348.101
348.097
348.091
348.085
348.078
348.071
348.062
348.045
348
347.881
347.569
346.671
343.814
337.235
336.829
343.152
346.338
347.457
347.855
347.985
348.019
348.026
348.033
348.043
348.054
348.064
348.072
348.077
348.079
348.079
348.076
348.07
348.061
348.051
348.039
348.029
348.023
348.017
347.985
347.857
347.462
346.345
343.159
336.835
336.458
342.342
346.02
347.469
347.903
347.964
347.941
347.927
347.934
347.952
347.971
347.988
348
348.008
348.012
348.012
348.007
347.998
347.984
347.967
347.947
347.929
347.922
347.937
347.961
347.903
347.472
346.026
342.35
336.465
336.066
341.899
346.388
347.943
348.004
347.786
347.656
347.632
347.661
347.704
347.744
347.776
347.799
347.813
347.82
347.82
347.812
347.796
347.772
347.74
347.699
347.655
347.625
347.649
347.779
348
347.942
346.392
341.907
336.074
337.062
343.715
349.415
348.798
347.512
346.815
346.634
346.685
346.801
346.915
347.01
347.082
347.133
347.166
347.182
347.181
347.165
347.131
347.079
347.006
346.91
346.795
346.678
346.625
346.805
347.502
348.791
349.412
343.719
337.07
332.387
361.275
352.222
346.883
344.058
343.241
343.282
343.565
343.873
344.146
344.366
344.533
344.653
344.73
344.767
344.767
344.729
344.651
344.531
344.363
344.142
343.869
343.559
343.275
343.233
344.047
346.871
352.212
361.269
332.393
447.572
363.285
347.537
339.078
336.545
335.998
336.005
336.177
336.409
336.64
336.839
336.997
337.114
337.193
337.232
337.231
337.192
337.114
336.996
336.838
336.638
336.407
336.174
336.001
335.993
336.538
339.068
347.525
363.273
447.553
446.075
362.52
346.873
337.781
334.538
333.498
333.219
333.196
333.267
333.358
333.446
333.522
333.583
333.625
333.647
333.647
333.627
333.586
333.526
333.45
333.363
333.272
333.2
333.221
333.497
334.531
337.767
346.851
362.49
446.008
332.1
360.554
352.623
346.822
342.873
341.064
340.515
340.539
340.772
341.051
341.309
341.523
341.685
341.793
341.847
341.848
341.795
341.689
341.528
341.315
341.057
340.777
340.542
340.514
341.056
342.858
346.801
352.598
360.528
332.089
336.099
343.433
349.734
349.279
347.294
345.764
345.08
344.951
345.069
345.255
345.434
345.58
345.689
345.761
345.796
345.797
345.763
345.693
345.586
345.439
345.26
345.072
344.951
345.073
345.752
347.275
349.257
349.712
343.416
336.089
333.955
340.262
345.513
347.936
348.117
347.612
347.208
347.04
347.029
347.085
347.157
347.222
347.272
347.305
347.322
347.323
347.308
347.276
347.226
347.161
347.088
347.029
347.036
347.198
347.597
348.099
347.917
345.497
340.251
333.95
333.891
339.778
344.195
346.818
347.807
347.95
347.856
347.768
347.736
347.743
347.768
347.795
347.818
347.834
347.842
347.843
347.836
347.82
347.798
347.77
347.743
347.733
347.762
347.846
347.937
347.793
346.805
344.186
339.773
333.891
334.044
340.256
344.327
346.626
347.609
347.94
348.011
348.004
347.992
347.991
347.999
348.011
348.022
348.031
348.035
348.036
348.032
348.024
348.013
348
347.99
347.989
347.999
348.003
347.931
347.6
346.62
344.324
340.257
334.047
334.213
340.87
344.856
346.807
347.607
347.928
348.045
348.079
348.087
348.09
348.095
348.101
348.107
348.112
348.115
348.115
348.113
348.108
348.102
348.095
348.09
348.085
348.076
348.04
347.923
347.603
346.806
344.859
340.875
334.218
334.4
341.442
345.348
347.029
347.678
347.947
348.061
348.107
348.125
348.132
348.137
348.141
348.144
348.147
348.148
348.149
348.147
348.145
348.142
348.137
348.132
348.124
348.106
348.059
347.946
347.68
347.033
345.354
341.448
334.406
334.598
341.941
345.723
347.21
347.756
347.978
348.076
348.121
348.142
348.15
348.155
348.157
348.159
348.16
348.161
348.162
348.161
348.16
348.158
348.156
348.151
348.143
348.123
348.078
347.981
347.761
347.217
345.732
341.949
334.604
334.788
342.363
346.004
347.345
347.819
348.007
348.091
348.131
348.15
348.158
348.161
348.163
348.163
348.164
348.164
348.165
348.165
348.165
348.164
348.163
348.16
348.152
348.134
348.096
348.013
347.826
347.354
346.013
342.371
334.794
334.958
342.706
346.211
347.441
347.864
348.03
348.103
348.138
348.154
348.16
348.163
348.163
348.163
348.163
348.163
348.163
348.164
348.164
348.165
348.165
348.164
348.158
348.143
348.11
348.037
347.873
347.451
346.22
342.713
334.964
335.1
342.971
346.361
347.509
347.896
348.047
348.112
348.143
348.156
348.161
348.162
348.161
348.16
348.16
348.159
348.16
348.161
348.162
348.164
348.165
348.165
348.161
348.148
348.119
348.055
347.906
347.519
346.37
342.977
335.105
335.209
343.161
346.465
347.555
347.918
348.058
348.118
348.145
348.156
348.16
348.16
348.159
348.157
348.156
348.156
348.156
348.157
348.159
348.161
348.164
348.164
348.162
348.152
348.126
348.066
347.927
347.564
346.473
343.167
335.214
335.284
343.284
346.529
347.583
347.931
348.064
348.121
348.146
348.156
348.159
348.158
348.156
348.155
348.153
348.153
348.153
348.155
348.157
348.159
348.162
348.163
348.162
348.153
348.128
348.072
347.94
347.592
346.537
343.289
335.287
335.322
343.342
346.559
347.596
347.936
348.066
348.122
348.146
348.155
348.157
348.157
348.155
348.153
348.151
348.151
348.151
348.152
348.155
348.157
348.16
348.162
348.16
348.152
348.128
348.073
347.944
347.603
346.565
343.347
335.324
335.321
343.34
346.556
347.593
347.934
348.064
348.12
348.144
348.154
348.156
348.155
348.153
348.151
348.15
348.15
348.15
348.151
348.153
348.156
348.159
348.16
348.159
348.15
348.126
348.07
347.94
347.599
346.562
343.343
335.322
335.279
343.278
346.522
347.576
347.924
348.058
348.116
348.142
348.152
348.155
348.155
348.153
348.151
348.15
348.149
348.15
348.151
348.153
348.155
348.158
348.159
348.156
348.146
348.121
348.063
347.93
347.581
346.526
343.28
335.281
335.202
343.151
346.452
347.543
347.907
348.048
348.11
348.138
348.15
348.154
348.155
348.153
348.152
348.15
348.15
348.15
348.151
348.153
348.155
348.157
348.157
348.154
348.142
348.114
348.052
347.911
347.547
346.456
343.153
335.203
335.089
342.956
346.344
347.492
347.882
348.034
348.102
348.134
348.148
348.153
348.154
348.154
348.152
348.152
348.151
348.151
348.152
348.154
348.156
348.157
348.156
348.151
348.136
348.105
348.037
347.885
347.495
346.346
342.957
335.09
334.944
342.688
346.189
347.42
347.847
348.015
348.091
348.128
348.145
348.152
348.154
348.154
348.153
348.152
348.152
348.152
348.153
348.154
348.155
348.156
348.154
348.147
348.13
348.093
348.017
347.849
347.422
346.191
342.689
334.945
334.772
342.341
345.978
347.321
347.799
347.991
348.079
348.121
348.14
348.148
348.151
348.152
348.151
348.151
348.151
348.151
348.152
348.153
348.154
348.153
348.15
348.142
348.122
348.079
347.992
347.8
347.322
345.98
342.342
334.772
334.578
341.916
345.696
347.185
347.736
347.963
348.065
348.112
348.132
348.141
348.144
348.145
348.145
348.145
348.146
348.146
348.146
348.147
348.147
348.146
348.143
348.134
348.112
348.064
347.962
347.735
347.185
345.696
341.916
334.578
334.379
341.414
345.319
347.004
347.66
347.934
348.051
348.1
348.117
348.123
348.125
348.127
348.128
348.129
348.13
348.13
348.13
348.13
348.129
348.128
348.126
348.119
348.1
348.05
347.932
347.657
347.002
345.317
341.413
334.378
334.19
340.841
344.827
346.784
347.592
347.92
348.04
348.075
348.082
348.082
348.083
348.085
348.088
348.091
348.093
348.094
348.093
348.092
348.089
348.087
348.085
348.084
348.076
348.039
347.916
347.586
346.778
344.823
340.839
334.188
334.02
340.227
344.3
346.608
347.601
347.94
348.013
348.005
347.989
347.983
347.986
347.993
348.001
348.007
348.011
348.011
348.01
348.005
347.998
347.992
347.988
347.993
348.007
348.013
347.936
347.593
346.598
344.292
340.221
334.016
333.866
339.75
344.172
346.809
347.812
347.962
347.868
347.775
347.735
347.735
347.753
347.775
347.794
347.807
347.814
347.815
347.81
347.799
347.781
347.761
347.743
347.742
347.78
347.87
347.959
347.804
346.796
344.159
339.739
333.859
333.927
340.235
345.5
347.945
348.142
347.64
347.23
347.052
347.03
347.076
347.141
347.2
347.245
347.276
347.292
347.293
347.28
347.252
347.208
347.15
347.087
347.04
347.061
347.236
347.641
348.137
347.932
345.483
340.219
333.916
336.068
343.411
349.748
349.32
347.342
345.806
345.107
344.964
345.069
345.245
345.417
345.558
345.663
345.733
345.768
345.769
345.737
345.67
345.567
345.427
345.257
345.081
344.976
345.117
345.812
347.342
349.312
349.732
343.39
336.052
332.03
360.578
352.684
346.89
342.93
341.102
340.537
340.547
340.77
341.041
341.295
341.506
341.665
341.772
341.826
341.827
341.775
341.67
341.512
341.303
341.051
340.781
340.558
340.548
341.111
342.936
346.89
352.677
360.557
332
446.185
362.621
346.956
337.84
334.574
333.517
333.226
333.195
333.261
333.348
333.433
333.508
333.567
333.608
333.63
333.63
333.61
333.57
333.512
333.439
333.355
333.269
333.204
333.235
333.527
334.583
337.846
346.959
362.619
446.142
441.91
360.971
346.031
337.054
333.572
332.23
331.722
331.55
331.522
331.543
331.577
331.611
331.64
331.661
331.671
331.671
331.659
331.638
331.608
331.574
331.54
331.52
331.55
331.725
332.238
333.584
337.073
346.059
361.009
442.003
331.28
358.809
351.689
346.145
342.025
339.805
338.853
338.58
338.618
338.771
338.948
339.109
339.235
339.322
339.365
339.364
339.32
339.233
339.105
338.945
338.769
338.617
338.583
338.861
339.819
342.047
346.174
351.724
358.847
331.292
335.436
342.684
348.96
348.713
346.669
344.761
343.616
343.138
343.061
343.172
343.344
343.511
343.647
343.739
343.786
343.785
343.737
343.644
343.508
343.341
343.171
343.062
343.144
343.628
344.78
346.695
348.742
348.989
342.705
335.445
332.807
339.242
344.625
347.361
347.736
347.102
346.432
346.055
345.942
345.977
346.069
346.166
346.246
346.301
346.328
346.328
346.299
346.244
346.163
346.067
345.978
345.946
346.064
346.446
347.122
347.759
347.383
344.643
339.253
332.81
332.394
338.231
342.79
345.868
347.352
347.689
347.57
347.404
347.315
347.297
347.32
347.356
347.389
347.413
347.426
347.425
347.412
347.388
347.354
347.32
347.299
347.32
347.413
347.583
347.704
347.368
345.881
342.798
338.234
332.392
332.373
338.343
342.472
345.353
347.02
347.698
347.874
347.876
347.848
347.834
347.838
347.849
347.863
347.873
347.878
347.878
347.872
347.862
347.849
347.838
347.837
347.853
347.883
347.883
347.708
347.028
345.358
342.472
338.34
332.367
332.442
338.76
342.802
345.498
347.007
347.682
347.947
348.034
348.056
348.06
348.063
348.069
348.075
348.08
348.082
348.082
348.079
348.074
348.068
348.064
348.061
348.058
348.038
347.951
347.685
347.008
345.495
342.796
338.752
332.433
332.54
339.208
343.296
345.854
347.143
347.723
347.984
348.096
348.141
348.16
348.168
348.174
348.178
348.181
348.182
348.182
348.18
348.177
348.173
348.168
348.16
348.142
348.097
347.984
347.721
347.139
345.847
343.286
339.197
332.53
332.652
339.622
343.773
346.192
347.299
347.79
348.02
348.13
348.183
348.209
348.221
348.228
348.232
348.234
348.235
348.235
348.233
348.231
348.227
348.22
348.208
348.182
348.128
348.017
347.785
347.291
346.182
343.761
339.611
332.642
332.766
339.987
344.178
346.456
347.431
347.855
348.055
348.156
348.208
348.235
348.249
348.257
348.261
348.263
348.263
348.263
348.262
348.26
348.255
348.248
348.233
348.205
348.152
348.05
347.848
347.422
346.444
344.165
339.976
332.756
332.871
340.297
344.502
346.653
347.533
347.909
348.085
348.176
348.225
348.251
348.265
348.272
348.276
348.278
348.278
348.278
348.277
348.275
348.271
348.263
348.248
348.221
348.171
348.079
347.9
347.523
346.641
344.49
340.286
332.862
332.961
340.547
344.749
346.796
347.608
347.949
348.109
348.192
348.236
348.261
348.274
348.281
348.284
348.286
348.286
348.286
348.285
348.283
348.279
348.271
348.257
348.232
348.186
348.102
347.94
347.598
346.784
344.738
340.537
332.953
333.032
340.736
344.926
346.895
347.661
347.978
348.127
348.203
348.245
348.267
348.279
348.286
348.289
348.29
348.29
348.29
348.289
348.287
348.284
348.277
348.264
348.24
348.197
348.119
347.97
347.651
346.885
344.916
340.728
333.025
333.081
340.864
345.04
346.958
347.694
347.997
348.138
348.21
348.25
348.271
348.282
348.288
348.291
348.292
348.292
348.292
348.291
348.29
348.286
348.28
348.267
348.245
348.205
348.131
347.989
347.685
346.949
345.032
340.857
333.075
333.107
340.929
345.096
346.989
347.71
348.006
348.144
348.214
348.252
348.273
348.283
348.289
348.292
348.293
348.293
348.293
348.292
348.291
348.287
348.281
348.27
348.248
348.209
348.138
348
347.703
346.981
345.09
340.924
333.102
333.108
340.931
345.098
346.99
347.711
348.007
348.144
348.214
348.252
348.272
348.283
348.289
348.292
348.293
348.293
348.293
348.292
348.291
348.288
348.282
348.27
348.249
348.211
348.139
348.002
347.705
346.984
345.092
340.926
333.104
333.085
340.868
345.044
346.961
347.696
347.998
348.138
348.21
348.249
348.271
348.282
348.288
348.291
348.292
348.293
348.293
348.292
348.291
348.287
348.281
348.269
348.248
348.208
348.135
347.995
347.692
346.957
345.04
340.864
333.082
333.038
340.743
344.933
346.9
347.664
347.98
348.127
348.203
348.244
348.267
348.279
348.286
348.289
348.291
348.292
348.291
348.291
348.289
348.286
348.279
348.266
348.243
348.202
348.126
347.978
347.661
346.898
344.93
340.74
333.035
332.969
340.556
344.758
346.803
347.613
347.952
348.11
348.192
348.236
348.261
348.274
348.282
348.286
348.288
348.288
348.288
348.288
348.286
348.282
348.274
348.261
348.236
348.192
348.11
347.951
347.611
346.801
344.756
340.554
332.967
332.88
340.308
344.513
346.661
347.538
347.911
348.086
348.176
348.224
348.251
348.266
348.274
348.278
348.281
348.282
348.282
348.281
348.279
348.274
348.266
348.252
348.225
348.177
348.087
347.912
347.538
346.66
344.512
340.307
332.879
332.777
340
344.191
346.465
347.437
347.858
348.056
348.156
348.208
348.236
348.251
348.26
348.265
348.267
348.269
348.269
348.267
348.265
348.26
348.252
348.237
348.21
348.158
348.058
347.86
347.438
346.466
344.19
339.999
332.776
332.665
339.637
343.788
346.202
347.304
347.792
348.021
348.13
348.184
348.211
348.225
348.233
348.238
348.241
348.243
348.243
348.241
348.238
348.233
348.225
348.212
348.186
348.133
348.024
347.796
347.307
346.204
343.788
339.637
332.665
332.554
339.224
343.311
345.865
347.149
347.725
347.984
348.096
348.143
348.163
348.174
348.181
348.187
348.191
348.193
348.193
348.191
348.187
348.181
348.174
348.164
348.145
348.099
347.988
347.73
347.154
345.869
343.314
339.225
332.554
332.457
338.776
342.818
345.509
347.012
347.683
347.947
348.035
348.059
348.065
348.072
348.08
348.088
348.094
348.097
348.097
348.093
348.086
348.078
348.07
348.065
348.059
348.038
347.952
347.689
347.019
345.516
342.823
338.78
332.459
332.389
338.361
342.487
345.362
347.023
347.698
347.874
347.878
347.853
347.843
347.85
347.865
347.88
347.892
347.898
347.898
347.891
347.878
347.861
347.846
347.84
347.852
347.878
347.877
347.705
347.032
345.373
342.497
338.367
332.393
332.411
338.249
342.805
345.875
347.351
347.686
347.568
347.407
347.322
347.309
347.336
347.375
347.412
347.438
347.45
347.449
347.435
347.407
347.37
347.33
347.303
347.317
347.403
347.568
347.69
347.361
345.888
342.819
338.261
332.419
332.826
339.262
344.637
347.36
347.728
347.094
346.429
346.059
345.952
345.993
346.089
346.19
346.273
346.329
346.357
346.356
346.326
346.267
346.182
346.08
345.983
345.943
346.05
346.423
347.093
347.734
347.373
344.654
339.28
332.839
335.46
342.704
348.96
348.699
346.653
344.749
343.612
343.142
343.072
343.19
343.366
343.537
343.675
343.769
343.816
343.815
343.765
343.669
343.528
343.356
343.178
343.06
343.13
343.601
344.741
346.65
348.705
348.975
342.726
335.478
331.34
358.809
351.662
346.116
342.004
339.793
338.852
338.587
338.631
338.789
338.97
339.133
339.262
339.349
339.393
339.392
339.346
339.256
339.125
338.96
338.778
338.618
338.574
338.839
339.782
341.995
346.112
351.667
358.829
331.37
441.88
360.923
345.992
337.029
333.559
332.227
331.726
331.56
331.536
331.56
331.596
331.633
331.663
331.684
331.695
331.694
331.682
331.659
331.627
331.589
331.551
331.526
331.549
331.715
332.216
333.547
337.017
345.981
360.916
441.913
438.579
359.456
345.113
336.401
332.901
331.426
330.78
330.503
330.4
330.37
330.37
330.382
330.397
330.409
330.415
330.415
330.409
330.397
330.382
330.37
330.369
330.398
330.5
330.777
331.425
332.903
336.409
345.126
359.471
438.579
330.986
357.375
350.542
345.243
341.204
338.875
337.727
337.258
337.139
337.182
337.283
337.394
337.488
337.556
337.591
337.591
337.556
337.489
337.394
337.283
337.18
337.137
337.255
337.725
338.875
341.205
345.245
350.54
357.367
330.974
335.041
342.04
348.026
347.79
345.792
343.795
342.439
341.723
341.447
341.418
341.503
341.622
341.733
341.814
341.857
341.857
341.814
341.733
341.622
341.502
341.417
341.445
341.721
342.438
343.794
345.791
347.787
348.019
342.033
335.041
332.164
338.58
343.84