/*--------------------------------*- C++ -*----------------------------------*\
| =========                 |                                                 |
| \\      /  F ield         | OpenFOAM: The Open Source CFD Toolbox           |
|  \\    /   O peration     | Version:  2312                                  |
|   \\  /    A nd           | Website:  www.openfoam.com                      |
|    \\/     M anipulation  |                                                 |
\*---------------------------------------------------------------------------*/
FoamFile
{
    version     2.0;
    format      ascii;
    arch        "LSB;label=32;scalar=64";
    class       volVectorField;
    location    "350";
    object      U;
}
// * * * * * * * * * * * * * * * * * * * * * * * * * * * * * * * * * * * * * //

dimensions      [0 1 -1 0 0 0 0];

internalField   nonuniform List<vector> 
27000
(
(-5.17626e-05 9.41788e-05 0.107688)
(-0.000193263 0.000208497 0.0764767)
(-9.09424e-05 0.000217993 0.0818519)
(-5.87856e-05 0.000196234 0.0834318)
(-2.49461e-05 0.000191521 0.0852812)
(-5.57127e-06 0.00019287 0.0867245)
(7.8298e-06 0.000196296 0.0878002)
(1.67187e-05 0.000199878 0.0886605)
(2.17162e-05 0.000203343 0.0893795)
(2.3236e-05 0.00020657 0.0899549)
(2.20316e-05 0.000209521 0.0904055)
(1.88484e-05 0.000212054 0.0907518)
(1.42908e-05 0.000214016 0.0910041)
(8.8322e-06 0.000215341 0.0911682)
(2.86006e-06 0.000216002 0.0912491)
(-3.27318e-06 0.000215992 0.0912492)
(-9.22859e-06 0.000215311 0.0911684)
(-1.46598e-05 0.00021397 0.0910044)
(-1.91722e-05 0.000211991 0.0907524)
(-2.22925e-05 0.000209448 0.0904062)
(-2.34168e-05 0.000206502 0.0899559)
(-2.18085e-05 0.000203282 0.0893808)
(-1.67162e-05 0.000199825 0.0886622)
(-7.69771e-06 0.000196291 0.0878021)
(5.81413e-06 0.000192953 0.0867266)
(2.5231e-05 0.000191658 0.0852832)
(5.89362e-05 0.000196392 0.0834338)
(9.07894e-05 0.000217659 0.0818542)
(0.000193021 0.000208634 0.0764797)
(5.08947e-05 9.31131e-05 0.107693)
(0.000291286 -0.000129637 0.0627613)
(0.000129854 -5.66071e-05 0.083851)
(0.000106111 0.000142089 0.0918601)
(7.12135e-05 0.000196793 0.0945627)
(6.58461e-05 0.000223753 0.0958372)
(6.75739e-05 0.000242286 0.096694)
(6.83497e-05 0.000257452 0.0973046)
(6.73643e-05 0.000270149 0.097756)
(6.41181e-05 0.000280447 0.0981011)
(5.8422e-05 0.000288615 0.0983645)
(5.05046e-05 0.000294971 0.0985628)
(4.08409e-05 0.000299782 0.0987096)
(2.99162e-05 0.000303235 0.098814)
(1.81497e-05 0.000305459 0.0988811)
(5.90721e-06 0.00030654 0.0989141)
(-6.48142e-06 0.000306521 0.0989143)
(-1.86986e-05 0.000305404 0.0988818)
(-3.0409e-05 0.000303147 0.0988152)
(-4.12543e-05 0.000299672 0.0987114)
(-5.08205e-05 0.000294849 0.0985652)
(-5.86226e-05 0.000288498 0.0983675)
(-6.41893e-05 0.000280357 0.0981047)
(-6.73165e-05 0.000270115 0.0977601)
(-6.82241e-05 0.000257474 0.0973091)
(-6.73637e-05 0.000242426 0.0966985)
(-6.55254e-05 0.000224087 0.0958415)
(-7.09432e-05 0.000197133 0.0945667)
(-0.00010609 0.000142385 0.0918641)
(-0.000130272 -5.69846e-05 0.083855)
(-0.000291469 -0.000129662 0.0627637)
(8.76267e-05 0.000148538 0.0806705)
(0.000119513 0.000162179 0.0901361)
(0.000163456 0.000208658 0.0970382)
(0.00015468 0.00023731 0.0986703)
(0.00013792 0.000257499 0.0991384)
(0.000124267 0.000272944 0.0993634)
(0.000112335 0.000285791 0.0995231)
(0.000101121 0.000296689 0.0996451)
(8.99234e-05 0.000305697 0.0997396)
(7.81238e-05 0.00031287 0.0998127)
(6.54242e-05 0.000318362 0.0998683)
(5.18203e-05 0.00032241 0.0999098)
(3.74718e-05 0.000325234 0.0999395)
(2.25888e-05 0.000327008 0.0999588)
(7.38742e-06 0.000327854 0.0999685)
(-7.90634e-06 0.000327827 0.099969)
(-2.30727e-05 0.000326934 0.0999601)
(-3.78966e-05 0.00032512 0.0999416)
(-5.21569e-05 0.000322265 0.0999128)
(-6.56511e-05 0.000318208 0.0998722)
(-7.82289e-05 0.000312728 0.0998175)
(-8.99011e-05 0.000305604 0.0997452)
(-0.000100984 0.000296658 0.0996513)
(-0.000112082 0.000285883 0.0995298)
(-0.000123929 0.000273158 0.0993703)
(-0.000137504 0.000257855 0.0991453)
(-0.000154178 0.000237758 0.0986771)
(-0.000163017 0.000208997 0.0970444)
(-0.000119376 0.000162274 0.0901407)
(-8.78926e-05 0.000148168 0.0806737)
(0.000133431 7.01394e-05 0.0839906)
(0.00014818 0.000147632 0.0941071)
(0.000181222 0.000216189 0.0983975)
(0.000177046 0.000238067 0.099475)
(0.000164327 0.000252554 0.0997745)
(0.000148613 0.000264135 0.0998803)
(0.000132625 0.000274256 0.0999383)
(0.000117126 0.000283293 0.0999811)
(0.000102084 0.000291137 0.100015)
(8.71573e-05 0.000297621 0.100042)
(7.20247e-05 0.0003027 0.100062)
(5.65304e-05 0.000306473 0.100078)
(4.06474e-05 0.000309096 0.100089)
(2.44455e-05 0.000310732 0.100097)
(8.04745e-06 0.000311499 0.100101)
(-8.41335e-06 0.000311472 0.100101)
(-2.47825e-05 0.000310649 0.100098)
(-4.0922e-05 0.000308967 0.100092)
(-5.67218e-05 0.000306316 0.100082)
(-7.21162e-05 0.000302536 0.100067)
(-8.71373e-05 0.000297478 0.100047)
(-0.000101955 0.000291042 0.100021)
(-0.000116884 0.000283291 0.099988)
(-0.000132297 0.000274357 0.0999457)
(-0.000148208 0.000264355 0.0998878)
(-0.000163839 0.000252885 0.0997821)
(-0.000176521 0.000238461 0.0994823)
(-0.000180736 0.000216528 0.098404)
(-0.000147851 0.000147809 0.0941116)
(-0.000133336 7.01598e-05 0.0839929)
(0.000132308 9.94768e-05 0.0864962)
(0.000169422 0.00015835 0.096045)
(0.000199885 0.000211067 0.0990757)
(0.000192948 0.000229784 0.0997466)
(0.000179685 0.000241144 0.0999445)
(0.000163267 0.000249971 0.100012)
(0.000145658 0.000257751 0.10004)
(0.000128051 0.000264886 0.100056)
(0.000110812 0.000271306 0.100068)
(9.38626e-05 0.000276805 0.100077)
(7.7011e-05 0.000281252 0.100085)
(6.01032e-05 0.000284622 0.100091)
(4.30598e-05 0.000286996 0.100096)
(2.58672e-05 0.000288481 0.100099)
(8.56443e-06 0.000289181 0.1001)
(-8.76152e-06 0.000289148 0.100101)
(-2.60344e-05 0.000288392 0.1001)
(-4.31759e-05 0.000286858 0.100099)
(-6.0145e-05 0.000284455 0.100095)
(-7.69657e-05 0.000281078 0.10009)
(-9.3726e-05 0.000276657 0.100083)
(-0.000110584 0.000271211 0.100074)
(-0.000127743 0.000264876 0.100063)
(-0.000145276 0.000257842 0.100047)
(-0.00016282 0.000250177 0.100019)
(-0.000179208 0.000241429 0.0999518)
(-0.000192438 0.000230129 0.0997534)
(-0.000199391 0.000211425 0.0990817)
(-0.000169044 0.00015864 0.0960489)
(-0.000132147 9.96078e-05 0.0864976)
(0.000141523 9.86892e-05 0.0883045)
(0.000187561 0.000162243 0.0971634)
(0.000215253 0.000203473 0.0994363)
(0.000206298 0.000217015 0.0998904)
(0.000191677 0.000225506 0.100015)
(0.000174209 0.000232147 0.100055)
(0.00015551 0.000238098 0.100067)
(0.000136605 0.000243688 0.10007)
(0.000117929 0.000248839 0.100072)
(9.9546e-05 0.000253371 0.100073)
(8.13762e-05 0.000257133 0.100074)
(6.33111e-05 0.000260056 0.100075)
(4.52572e-05 0.000262153 0.100076)
(2.71707e-05 0.00026348 0.100077)
(9.05185e-06 0.000264105 0.100078)
(-9.07956e-06 0.000264073 0.100079)
(-2.71759e-05 0.000263384 0.100079)
(-4.52173e-05 0.000262008 0.100079)
(-6.32127e-05 0.000259879 0.100079)
(-8.12091e-05 0.000256951 0.100079)
(-9.93081e-05 0.000253212 0.100079)
(-0.000117625 0.000248736 0.100078)
(-0.000136242 0.000243664 0.100077)
(-0.000155095 0.000238179 0.100074)
(-0.00017376 0.00023232 0.100062)
(-0.000191197 0.000225773 0.100022)
(-0.000205813 0.000217351 0.0998964)
(-0.000214774 0.000203861 0.0994412)
(-0.00018714 0.000162648 0.0971662)
(-0.000141267 9.90107e-05 0.088305)
(0.000150097 9.62624e-05 0.0896636)
(0.000203823 0.000156735 0.0978678)
(0.000228451 0.000190426 0.0996467)
(0.000217827 0.000200849 0.0999746)
(0.000201857 0.000207161 0.100053)
(0.000183359 0.000212114 0.100072)
(0.000163739 0.000216638 0.100072)
(0.000143868 0.000220974 0.100068)
(0.000124135 0.000225052 0.100063)
(0.000104657 0.000228716 0.10006)
(8.542e-05 0.00023182 0.100057)
(6.63517e-05 0.000234284 0.100056)
(4.73801e-05 0.000236078 0.100055)
(2.84451e-05 0.00023723 0.100055)
(9.52079e-06 0.000237773 0.100055)
(-9.39244e-06 0.000237739 0.100056)
(-2.8299e-05 0.000237131 0.100057)
(-4.72015e-05 0.000235928 0.100058)
(-6.61291e-05 0.000234101 0.10006)
(-8.51489e-05 0.000231633 0.100062)
(-0.000104338 0.000228552 0.100065)
(-0.000123771 0.000224945 0.100069)
(-0.000143467 0.000220948 0.100074)
(-0.00016331 0.000216709 0.100079)
(-0.000182905 0.00021229 0.100078)
(-0.000201392 0.000207435 0.100059)
(-0.000217356 0.000201216 0.0999795)
(-0.000227981 0.000190884 0.0996503)
(-0.000203385 0.000157259 0.0978695)
(-0.0001498 9.67314e-05 0.0896632)
(0.000158068 9.09266e-05 0.0906977)
(0.000217711 0.000146499 0.0983422)
(0.000239555 0.000173857 0.0997805)
(0.000227621 0.00018209 0.100026)
(0.000210526 0.000186901 0.100075)
(0.000191149 0.000190623 0.100079)
(0.000170774 0.00019404 0.100071)
(0.000150138 0.000197355 0.100061)
(0.000129587 0.000200522 0.100053)
(0.000109245 0.000203409 0.100047)
(8.91289e-05 0.000205898 0.100042)
(6.91996e-05 0.000207902 0.10004)
(4.93948e-05 0.000209386 0.100038)
(2.96652e-05 0.000210344 0.100038)
(9.9721e-06 0.0002108 0.100038)
(-9.70915e-06 0.000210765 0.100038)
(-2.93905e-05 0.000210247 0.100039)
(-4.9099e-05 0.000209237 0.100041)
(-6.88765e-05 0.000207724 0.100044)
(-8.87769e-05 0.000205717 0.100047)
(-0.000108865 0.000203257 0.100052)
(-0.000129184 0.000200426 0.100058)
(-0.000149718 0.000197346 0.100067)
(-0.000170339 0.000194132 0.100077)
(-0.000190707 0.00019083 0.100084)
(-0.000210078 0.00018722 0.10008)
(-0.000227169 0.000182528 0.10003)
(-0.000239101 0.000174412 0.0997827)
(-0.000217278 0.000147145 0.0983426)
(-0.000157765 9.15188e-05 0.0906965)
(0.000165719 8.32108e-05 0.0915048)
(0.000229609 0.000132702 0.0986781)
(0.000248892 0.000154885 0.0998722)
(0.000235803 0.000161435 0.10006)
(0.000217766 0.000165159 0.100088)
(0.000197669 0.000167964 0.100081)
(0.000176687 0.000170521 0.100068)
(0.000155459 0.000173011 0.100054)
(0.000134273 0.000175408 0.100044)
(0.000113251 0.000177619 0.100036)
(9.24233e-05 0.000179548 0.100031)
(7.17651e-05 0.00018112 0.100028)
(5.12348e-05 0.000182295 0.100026)
(3.07847e-05 0.000183062 0.100026)
(1.03786e-05 0.000183424 0.100026)
(-1.00107e-05 0.000183393 0.100026)
(-3.04113e-05 0.000182971 0.100027)
(-5.08516e-05 0.000182159 0.100029)
(-7.13702e-05 0.00018096 0.100032)
(-9.20169e-05 0.000179392 0.100035)
(-0.000112838 0.000177497 0.100041)
(-0.000133854 0.000175352 0.100049)
(-0.000155039 0.000173045 0.100059)
(-0.000176269 0.000170668 0.100072)
(-0.000197251 0.000168233 0.100085)
(-0.000217348 0.000165562 0.100091)
(-0.000235382 0.00016197 0.100062)
(-0.000248467 0.000155556 0.0998729)
(-0.0002292 0.000133466 0.098677)
(-0.000165435 8.39003e-05 0.0915027)
(0.000172592 7.3508e-05 0.0921358)
(0.000239667 0.000116253 0.0989232)
(0.000256671 0.000134072 0.0999383)
(0.000242547 0.000139275 0.100083)
(0.000223688 0.000142165 0.100095)
(0.00020298 0.00014427 0.100081)
(0.000181524 0.000146159 0.100064)
(0.000159839 0.000147987 0.100048)
(0.000138172 0.000149746 0.100037)
(0.000116627 0.000151379 0.100029)
(9.52342e-05 0.000152814 0.100024)
(7.39808e-05 0.000153992 0.100021)
(5.28353e-05 0.000154879 0.100019)
(3.17622e-05 0.00015546 0.100018)
(1.07288e-05 0.000155736 0.100018)
(-1.02924e-05 0.000155709 0.100019)
(-3.13262e-05 0.000155385 0.10002)
(-5.23997e-05 0.000154769 0.100021)
(-7.3548e-05 0.000153868 0.100024)
(-9.48077e-05 0.000152703 0.100027)
(-0.000116209 0.000151313 0.100033)
(-0.000137767 0.000149754 0.100041)
(-0.000159446 0.000148095 0.100052)
(-0.000181142 0.000146389 0.100067)
(-0.000202607 0.000144636 0.100084)
(-0.000223316 0.000142673 0.100097)
(-0.000242173 0.00013993 0.100083)
(-0.000256293 0.000134864 0.0999373)
(-0.000239299 0.000117126 0.0989207)
(-0.000172346 7.42691e-05 0.0921329)
(0.000178468 6.22944e-05 0.0926176)
(0.000247947 9.78488e-05 0.099102)
(0.00026301 0.000111863 0.0999863)
(0.000247968 0.000115918 0.100099)
(0.000228407 0.000118113 0.1001)
(0.0002072 0.000119673 0.10008)
(0.000185364 0.000121029 0.10006)
(0.000163334 0.000122319 0.100043)
(0.000141306 0.000123553 0.100031)
(0.000119366 0.000124696 0.100023)
(9.75356e-05 0.000125702 0.100019)
(7.58096e-05 0.000126532 0.100016)
(5.41637e-05 0.000127158 0.100014)
(3.25718e-05 0.00012757 0.100014)
(1.10093e-05 0.000127765 0.100014)
(-1.05461e-05 0.000127747 0.100014)
(-3.21131e-05 0.000127519 0.100015)
(-5.37156e-05 0.000127088 0.100016)
(-7.53761e-05 0.000126463 0.100018)
(-9.71219e-05 0.000125661 0.100021)
(-0.000118976 0.000124711 0.100026)
(-0.000140941 0.000123653 0.100034)
(-0.000162992 0.00012253 0.100046)
(-0.000185043 0.000121371 0.100062)
(-0.000206891 0.000120158 0.100081)
(-0.000228102 0.000118748 0.1001)
(-0.000247659 0.000116699 0.100098)
(-0.000262696 0.000112774 0.0999838)
(-0.000247638 9.88151e-05 0.0990981)
(-0.00017827 6.3106e-05 0.092614)
(0.00018326 4.99098e-05 0.092975)
(0.000254518 7.79929e-05 0.0992297)
(0.000268013 8.86009e-05 0.10002)
(0.000252198 9.16335e-05 0.10011)
(0.000232054 9.32294e-05 0.100102)
(0.000210442 9.43187e-05 0.100079)
(0.000188309 9.52309e-05 0.100057)
(0.000166019 9.60722e-05 0.10004)
(0.000143727 9.68644e-05 0.100028)
(0.000121494 9.75912e-05 0.10002)
(9.93368e-05 9.82288e-05 0.100015)
(7.72471e-05 9.87526e-05 0.100013)
(5.52094e-05 9.91482e-05 0.100012)
(3.32049e-05 9.94087e-05 0.100011)
(1.12164e-05 9.95336e-05 0.100011)
(-1.07697e-05 9.95261e-05 0.100012)
(-3.27674e-05 9.93906e-05 0.100012)
(-5.47888e-05 9.91314e-05 0.100013)
(-7.68518e-05 9.87571e-05 0.100015)
(-9.89724e-05 9.82772e-05 0.100017)
(-0.000121164 9.77114e-05 0.100022)
(-0.000143432 9.70815e-05 0.100029)
(-0.000165756 9.64089e-05 0.100041)
(-0.00018807 9.57048e-05 0.100057)
(-0.000210217 9.49389e-05 0.100078)
(-0.000231832 9.39976e-05 0.100101)
(-0.000251971 9.25415e-05 0.100107)
(-0.000267778 8.96209e-05 0.100016)
(-0.000254279 7.90361e-05 0.0992245)
(-0.000183117 5.07528e-05 0.0929706)
(0.000186915 3.66464e-05 0.0932271)
(0.000259438 5.70729e-05 0.099317)
(0.000271753 6.45528e-05 0.100043)
(0.000255339 6.66459e-05 0.100117)
(0.000234744 6.76935e-05 0.100103)
(0.00021282 6.83614e-05 0.100077)
(0.000190464 6.88814e-05 0.100054)
(0.000167985 6.93356e-05 0.100037)
(0.000145504 6.97465e-05 0.100025)
(0.000123062 7.0115e-05 0.100017)
(0.000100667 7.04317e-05 0.100013)
(7.83104e-05 7.06883e-05 0.100011)
(5.59802e-05 7.08807e-05 0.10001)
(3.36634e-05 7.10075e-05 0.10001)
(1.13508e-05 7.10725e-05 0.10001)
(-1.09647e-05 7.10783e-05 0.10001)
(-3.32889e-05 7.10296e-05 0.10001)
(-5.56285e-05 7.09294e-05 0.100011)
(-7.79908e-05 7.07803e-05 0.100012)
(-0.000100386 7.05883e-05 0.100014)
(-0.000122823 7.0358e-05 0.100018)
(-0.000145306 7.00984e-05 0.100025)
(-0.000167823 6.98139e-05 0.100036)
(-0.000190328 6.94989e-05 0.100053)
(-0.000212698 6.9123e-05 0.100075)
(-0.000234624 6.85951e-05 0.1001)
(-0.000255209 6.76724e-05 0.100113)
(-0.000271609 6.56682e-05 0.100038)
(-0.000259278 5.81743e-05 0.0993105)
(-0.000186832 3.75038e-05 0.0932221)
(0.0001894 2.2772e-05 0.0933881)
(0.000262747 3.54162e-05 0.0993714)
(0.00027428 3.99509e-05 0.100058)
(0.000257461 4.11587e-05 0.100121)
(0.000236561 4.16889e-05 0.100104)
(0.000214423 4.19603e-05 0.100076)
(0.000191914 4.21195e-05 0.100052)
(0.000169308 4.22235e-05 0.100034)
(0.0001467 4.22957e-05 0.100023)
(0.000124118 4.23459e-05 0.100015)
(0.000101562 4.23787e-05 0.100011)
(7.9023e-05 4.23988e-05 0.100009)
(5.64898e-05 4.24102e-05 0.100008)
(3.39555e-05 4.24196e-05 0.100008)
(1.14154e-05 4.24322e-05 0.100008)
(-1.11315e-05 4.24538e-05 0.100008)
(-3.3685e-05 4.24866e-05 0.100008)
(-5.62452e-05 4.25321e-05 0.100009)
(-7.88142e-05 4.25889e-05 0.10001)
(-0.000101396 4.26538e-05 0.100012)
(-0.000123998 4.27232e-05 0.100015)
(-0.000146623 4.27913e-05 0.100022)
(-0.000169268 4.28501e-05 0.100033)
(-0.0001919 4.28833e-05 0.100049)
(-0.00021442 4.28606e-05 0.100072)
(-0.000236554 4.2716e-05 0.100099)
(-0.000257439 4.22911e-05 0.100115)
(-0.000274237 4.11436e-05 0.10005)
(-0.000262672 3.65554e-05 0.0993636)
(-0.000189378 2.36273e-05 0.0933824)
(0.000190689 8.5365e-06 0.0934666)
(0.00026447 1.3314e-05 0.0993976)
(0.000275628 1.50037e-05 0.100064)
(0.000258609 1.53584e-05 0.100123)
(0.000237554 1.53887e-05 0.100104)
(0.000215308 1.52774e-05 0.100075)
(0.000192718 1.50935e-05 0.100051)
(0.000170042 1.487e-05 0.100033)
(0.000147363 1.46291e-05 0.100021)
(0.000124701 1.43877e-05 0.100014)
(0.000102052 1.41621e-05 0.10001)
(7.94056e-05 1.3966e-05 0.100008)
(5.67533e-05 1.38136e-05 0.100007)
(3.40896e-05 1.37161e-05 0.100007)
(1.14142e-05 1.3683e-05 0.100007)
(-1.12702e-05 1.37203e-05 0.100007)
(-3.39594e-05 1.38307e-05 0.100007)
(-5.66495e-05 1.40119e-05 0.100007)
(-7.93386e-05 1.42582e-05 0.100008)
(-0.000102028 1.45593e-05 0.10001)
(-0.000124722 1.4902e-05 0.100013)
(-0.000147427 1.52695e-05 0.100019)
(-0.00017014 1.56425e-05 0.10003)
(-0.000192837 1.59979e-05 0.100047)
(-0.000215434 1.6307e-05 0.10007)
(-0.000237671 1.65278e-05 0.100097)
(-0.000258702 1.65796e-05 0.100115)
(-0.00027569 1.62545e-05 0.100055)
(-0.000264483 1.44708e-05 0.0993885)
(-0.000190727 9.37379e-06 0.0934603)
(0.00019077 -5.83024e-06 0.0934669)
(0.00026462 -8.96386e-06 0.0993978)
(0.000275809 -1.00906e-05 0.100064)
(0.0002588 -1.05781e-05 0.100123)
(0.000237747 -1.10396e-05 0.100103)
(0.000215497 -1.15253e-05 0.100075)
(0.000192899 -1.20427e-05 0.10005)
(0.000170211 -1.25812e-05 0.100032)
(0.000147514 -1.31217e-05 0.100021)
(0.000124829 -1.36399e-05 0.100013)
(0.000102151 -1.41114e-05 0.100009)
(7.94703e-05 -1.45116e-05 0.100007)
(5.67786e-05 -1.48194e-05 0.100006)
(3.40719e-05 -1.50176e-05 0.100006)
(1.13511e-05 -1.50936e-05 0.100005)
(-1.13791e-05 -1.50404e-05 0.100005)
(-3.41127e-05 -1.48564e-05 0.100005)
(-5.68442e-05 -1.45459e-05 0.100006)
(-7.95699e-05 -1.412e-05 0.100006)
(-0.00010229 -1.35954e-05 0.100008)
(-0.000125009 -1.29945e-05 0.100011)
(-0.000147732 -1.23441e-05 0.100018)
(-0.000170457 -1.16732e-05 0.100028)
(-0.000193161 -1.10105e-05 0.100045)
(-0.000215758 -1.03822e-05 0.100068)
(-0.000237991 -9.80619e-06 0.100095)
(-0.000259012 -9.28766e-06 0.100114)
(-0.000275978 -8.80204e-06 0.100054)
(-0.000264718 -7.8087e-06 0.0993875)
(-0.000190865 -5.02542e-06 0.09346)
(0.00018964 -2.01118e-05 0.0933889)
(0.00026319 -3.11523e-05 0.099372)
(0.000274819 -3.51335e-05 0.100057)
(0.000258029 -3.64726e-05 0.100121)
(0.000237133 -3.74269e-05 0.100103)
(0.000214985 -3.82842e-05 0.100075)
(0.000192453 -3.9131e-05 0.10005)
(0.00016981 -3.99814e-05 0.100033)
(0.00014715 -4.08183e-05 0.100021)
(0.000124499 -4.16123e-05 0.100013)
(0.000101858 -4.23277e-05 0.100009)
(7.92165e-05 -4.29312e-05 0.100006)
(5.65666e-05 -4.33936e-05 0.100005)
(3.39039e-05 -4.36919e-05 0.100004)
(1.1229e-05 -4.38115e-05 0.100004)
(-1.14544e-05 -4.37437e-05 0.100004)
(-3.41402e-05 -4.34881e-05 0.100004)
(-5.68232e-05 -4.30513e-05 0.100004)
(-7.95013e-05 -4.24492e-05 0.100005)
(-0.000102175 -4.17042e-05 0.100007)
(-0.00012485 -4.0849e-05 0.100011)
(-0.00014753 -3.99192e-05 0.100017)
(-0.00017021 -3.89549e-05 0.100028)
(-0.00019286 -3.79905e-05 0.100044)
(-0.000215382 -3.70478e-05 0.100067)
(-0.000237503 -3.6121e-05 0.100094)
(-0.000258358 -3.5134e-05 0.10011)
(-0.00027509 -3.38278e-05 0.100046)
(-0.000263369 -3.00171e-05 0.0993606)
(-0.000189788 -1.935e-05 0.0933814)
(0.000187304 -3.40787e-05 0.0932284)
(0.000260155 -5.29793e-05 0.099318)
(0.000272625 -5.99229e-05 0.100043)
(0.000256262 -6.21421e-05 0.100116)
(0.000235675 -6.36002e-05 0.100102)
(0.000213735 -6.4831e-05 0.100075)
(0.000191343 -6.60115e-05 0.100052)
(0.000168806 -6.71807e-05 0.100034)
(0.000146241 -6.83257e-05 0.100021)
(0.000123689 -6.94065e-05 0.100013)
(0.000101155 -7.0378e-05 0.100009)
(7.86312e-05 -7.11943e-05 0.100006)
(5.611e-05 -7.18186e-05 0.100004)
(3.35832e-05 -7.22232e-05 0.100003)
(1.10489e-05 -7.23895e-05 0.100003)
(-1.14906e-05 -7.23097e-05 0.100003)
(-3.40319e-05 -7.19829e-05 0.100003)
(-5.65728e-05 -7.1419e-05 0.100004)
(-7.91132e-05 -7.06358e-05 0.100005)
(-0.000101658 -6.96653e-05 0.100007)
(-0.000124214 -6.85454e-05 0.100011)
(-0.000146784 -6.73272e-05 0.100018)
(-0.000169358 -6.60595e-05 0.100029)
(-0.00019189 -6.47862e-05 0.100045)
(-0.000214263 -6.35258e-05 0.100067)
(-0.000236166 -6.2244e-05 0.100092)
(-0.000256699 -6.07776e-05 0.100105)
(-0.000272993 -5.86197e-05 0.100031)
(-0.000260406 -5.18792e-05 0.0993056)
(-0.000187497 -3.33677e-05 0.0932203)
(0.000183781 -4.74798e-05 0.0929765)
(0.000255477 -7.4149e-05 0.0992309)
(0.000269184 -8.4241e-05 0.10002)
(0.000253439 -8.73923e-05 0.100109)
(0.000233309 -8.93724e-05 0.1001)
(0.00021168 -9.09928e-05 0.100076)
(0.000189502 -9.25236e-05 0.100054)
(0.000167137 -9.40372e-05 0.100036)
(0.000144734 -9.55176e-05 0.100023)
(0.000122353 -9.69151e-05 0.100015)
(0.000100008 -9.81675e-05 0.10001)
(7.76932e-05 -9.9218e-05 0.100006)
(5.53949e-05 -0.00010002 0.100004)
(3.31034e-05 -0.000100541 0.100003)
(1.0812e-05 -0.000100761 0.100003)
(-1.14812e-05 -0.000100672 0.100003)
(-3.37757e-05 -0.000100273 0.100003)
(-5.60721e-05 -9.95764e-05 0.100004)
(-7.83778e-05 -9.86031e-05 0.100005)
(-0.000100701 -9.73875e-05 0.100008)
(-0.000123052 -9.59825e-05 0.100012)
(-0.000145436 -9.44469e-05 0.10002)
(-0.000167833 -9.28492e-05 0.100031)
(-0.000190182 -9.12414e-05 0.100047)
(-0.000212328 -8.96441e-05 0.100068)
(-0.00023391 -8.79907e-05 0.10009)
(-0.000253977 -8.60222e-05 0.100097)
(-0.000269636 -8.29584e-05 0.100007)
(-0.00025579 -7.30978e-05 0.0992179)
(-0.00018401 -4.68259e-05 0.092968)
(0.000179099 -6.00458e-05 0.0926194)
(0.000249102 -9.43245e-05 0.0991032)
(0.00026443 -0.000107846 0.0999856)
(0.000249479 -0.000112 0.100097)
(0.000229942 -0.000114547 0.100097)
(0.00020872 -0.00011659 0.100077)
(0.000186836 -0.000118515 0.100056)
(0.000164717 -0.000120422 0.100039)
(0.000142559 -0.00012229 0.100027)
(0.000120439 -0.000124052 0.100018)
(9.83807e-05 -0.000125627 0.100012)
(7.63756e-05 -0.000126942 0.100008)
(5.44077e-05 -0.000127944 0.100006)
(3.24588e-05 -0.000128596 0.100004)
(1.05178e-05 -0.000128879 0.100004)
(-1.14199e-05 -0.000128783 0.100004)
(-3.33576e-05 -0.000128312 0.100004)
(-5.53025e-05 -0.000127474 0.100005)
(-7.72631e-05 -0.000126292 0.100007)
(-9.92597e-05 -0.000124807 0.100011)
(-0.000121308 -0.000123076 0.100016)
(-0.000143411 -0.00012118 0.100024)
(-0.000165549 -0.000119198 0.100035)
(-0.000187635 -0.000117207 0.100051)
(-0.000209476 -0.000115226 0.10007)
(-0.00023064 -0.000113164 0.100088)
(-0.000250103 -0.000110645 0.100086)
(-0.000264955 -0.0001066 0.0999724)
(-0.000249465 -9.33341e-05 0.0990899)
(-0.000179356 -5.9454e-05 0.0926106)
(0.000173302 -7.1483e-05 0.0921376)
(0.00024096 -0.000113109 0.0989242)
(0.000258281 -0.000130453 0.0999374)
(0.000244272 -0.000135724 0.100081)
(0.000225449 -0.000138919 0.100093)
(0.000204735 -0.000141452 0.100078)
(0.000183231 -0.00014385 0.10006)
(0.000161454 -0.000146233 0.100044)
(0.000139642 -0.000148569 0.100032)
(0.000117895 -0.000150764 0.100023)
(9.62381e-05 -0.000152716 0.100016)
(7.46619e-05 -0.000154336 0.100012)
(5.31397e-05 -0.000155564 0.100009)
(3.16474e-05 -0.000156363 0.100008)
(1.01697e-05 -0.000156716 0.100007)
(-1.13021e-05 -0.000156619 0.100007)
(-3.27723e-05 -0.000156072 0.100008)
(-5.42474e-05 -0.000155084 0.100009)
(-7.57487e-05 -0.000153674 0.100012)
(-9.72976e-05 -0.000151883 0.100016)
(-0.000118923 -0.000149777 0.100021)
(-0.000140636 -0.000147449 0.10003)
(-0.000162407 -0.000145008 0.100041)
(-0.000184137 -0.000142545 0.100056)
(-0.000205583 -0.000140103 0.100072)
(-0.000226228 -0.000137558 0.100084)
(-0.000244966 -0.000134407 0.10007)
(-0.000258862 -0.000129256 0.0999247)
(-0.000241361 -0.000112189 0.098911)
(-0.000173577 -7.09546e-05 0.0921286)
(0.000166471 -8.14483e-05 0.0915065)
(0.000230975 -0.000129984 0.0986789)
(0.000250621 -0.000151693 0.0998712)
(0.000237676 -0.000158269 0.100058)
(0.000219694 -0.000162238 0.100085)
(0.000199604 -0.000165411 0.100079)
(0.000178584 -0.000168413 0.100065)
(0.000157265 -0.000171397 0.100051)
(0.000135928 -0.00017431 0.100039)
(0.000114689 -0.000177026 0.10003)
(9.35707e-05 -0.00017942 0.100024)
(7.25528e-05 -0.000181389 0.100019)
(5.15999e-05 -0.000182869 0.100017)
(3.06791e-05 -0.000183829 0.100015)
(9.77176e-06 -0.000184261 0.100014)
(-1.11274e-05 -0.000184165 0.100014)
(-3.20198e-05 -0.000183542 0.100015)
(-5.29147e-05 -0.000182395 0.100016)
(-7.38294e-05 -0.000180737 0.100019)
(-9.48023e-05 -0.0001786 0.100024)
(-0.000115869 -0.000176057 0.10003)
(-0.000137053 -0.000173213 0.100038)
(-0.000158329 -0.0001702 0.100049)
(-0.000179584 -0.000167145 0.100062)
(-0.00020053 -0.000164102 0.100074)
(-0.00022054 -0.000160929 0.100079)
(-0.000238425 -0.000157004 0.100049)
(-0.000251244 -0.000150564 0.0998599)
(-0.000231397 -0.000129139 0.0986665)
(-0.000166754 -8.09829e-05 0.0914976)
(0.000158817 -8.94608e-05 0.0906992)
(0.000219075 -0.00014423 0.0983428)
(0.00024133 -0.000171101 0.0997796)
(0.000229571 -0.000179298 0.100025)
(0.000212561 -0.00018429 0.100074)
(0.000193212 -0.000188317 0.100077)
(0.000172816 -0.000192117 0.100069)
(0.000152101 -0.000195869 0.100058)
(0.000131399 -0.000199494 0.100049)
(0.000110829 -0.000202834 0.100041)
(9.04027e-05 -0.000205737 0.100035)
(7.00838e-05 -0.000208094 0.100031)
(4.98212e-05 -0.000209845 0.100028)
(2.95774e-05 -0.000210975 0.100027)
(9.33673e-06 -0.000211488 0.100026)
(-1.08993e-05 -0.000211397 0.100026)
(-3.1121e-05 -0.000210699 0.100026)
(-5.13273e-05 -0.000209393 0.100028)
(-7.15388e-05 -0.000207468 0.100031)
(-9.17935e-05 -0.000204954 0.100036)
(-0.00011215 -0.000201907 0.100041)
(-0.000132643 -0.000198449 0.100049)
(-0.000153266 -0.00019473 0.100058)
(-0.000173897 -0.000190913 0.100068)
(-0.000194206 -0.000187079 0.100075)
(-0.000213458 -0.000183053 0.10007)
(-0.000230363 -0.000178111 0.100019)
(-0.000241978 -0.000170051 0.0997705)
(-0.000219506 -0.000143469 0.0983318)
(-0.000159096 -8.90538e-05 0.0906905)
(0.000150788 -9.51176e-05 0.0896649)
(0.000205109 -0.000154908 0.0978682)
(0.000230192 -0.000188083 0.0996463)
(0.000219794 -0.000198397 0.0999741)
(0.000203941 -0.000204828 0.100053)
(0.000185508 -0.000210026 0.100071)
(0.000165891 -0.000214881 0.100071)
(0.000145955 -0.000219602 0.100066)
(0.000126076 -0.000224091 0.10006)
(0.000106364 -0.000228156 0.100055)
(8.68008e-05 -0.000231629 0.100051)
(6.73217e-05 -0.0002344 0.100048)
(4.78625e-05 -0.000236429 0.100046)
(2.83838e-05 -0.000237726 0.100044)
(8.87983e-06 -0.00023832 0.100044)
(-1.06261e-05 -0.000238234 0.100044)
(-3.01063e-05 -0.00023747 0.100044)
(-4.95403e-05 -0.000236005 0.100046)
(-6.89352e-05 -0.000233818 0.100048)
(-8.83371e-05 -0.000230897 0.100051)
(-0.00010781 -0.000227295 0.100056)
(-0.000127428 -0.000223118 0.100061)
(-0.000147207 -0.000218544 0.100068)
(-0.000167044 -0.000213766 0.100073)
(-0.000186554 -0.000208881 0.100072)
(-0.00020488 -0.000203687 0.100052)
(-0.00022061 -0.000197309 0.0999712)
(-0.000230854 -0.000187128 0.0996403)
(-0.000205534 -0.00015424 0.0978596)
(-0.000151055 -9.47585e-05 0.0896566)
(0.000142105 -9.78613e-05 0.0883055)
(0.000188705 -0.000160824 0.0971639)
(0.000216904 -0.000201484 0.0994368)
(0.000208229 -0.00021486 0.0998914)
(0.000193774 -0.000223412 0.100016)
(0.000176411 -0.000230248 0.100056)
(0.000157745 -0.000236495 0.100067)
(0.000138793 -0.000242426 0.100069)
(0.000119975 -0.000247945 0.100069)
(0.000101352 -0.000252833 0.100069)
(8.28427e-05 -0.000256919 0.100069)
(6.43493e-05 -0.000260109 0.100068)
(4.57912e-05 -0.000262406 0.100068)
(2.71416e-05 -0.000263856 0.100068)
(8.42233e-06 -0.000264523 0.100067)
(-1.03181e-05 -0.000264444 0.100067)
(-2.90116e-05 -0.000263621 0.100067)
(-4.76098e-05 -0.000262018 0.100067)
(-6.60963e-05 -0.000259577 0.100068)
(-8.44995e-05 -0.000256251 0.100069)
(-0.000102907 -0.000252047 0.10007)
(-0.000121416 -0.00024706 0.100071)
(-0.000140121 -0.000241466 0.100072)
(-0.000158954 -0.00023548 0.10007)
(-0.000177498 -0.000229219 0.100059)
(-0.000194741 -0.000222385 0.100019)
(-0.000209055 -0.00021389 0.0998922)
(-0.000217561 -0.000200644 0.0994349)
(-0.000189118 -0.00016025 0.0971585)
(-0.000142369 -9.75437e-05 0.0882988)
(0.000132786 -9.89052e-05 0.086497)
(0.000170381 -0.000157263 0.096046)
(0.000201407 -0.000209376 0.0990777)
(0.000194801 -0.000227879 0.0997492)
(0.000181782 -0.000239251 0.0999474)
(0.000165501 -0.00024826 0.100014)
(0.00014796 -0.000256291 0.100041)
(0.00013032 -0.000263741 0.100056)
(0.000112937 -0.000270486 0.100067)
(9.57357e-05 -0.000276301 0.100075)
(7.85333e-05 -0.000281023 0.100081)
(6.11865e-05 -0.000284625 0.100086)
(4.36313e-05 -0.000287165 0.100089)
(2.58722e-05 -0.000288755 0.100091)
(7.97049e-06 -0.000289484 0.100092)
(-9.96858e-06 -0.000289415 0.100091)
(-2.78426e-05 -0.000288543 0.10009)
(-4.55497e-05 -0.000286818 0.100088)
(-6.30276e-05 -0.000284145 0.100085)
(-8.02778e-05 -0.000280425 0.10008)
(-9.73676e-05 -0.000275598 0.100075)
(-0.00011445 -0.000269696 0.100068)
(-0.000131698 -0.000262884 0.100059)
(-0.000149209 -0.000255398 0.100045)
(-0.000166619 -0.000247342 0.100019)
(-0.000182752 -0.000238361 0.0999527)
(-0.000195629 -0.000227034 0.0997538)
(-0.000202047 -0.000208666 0.09908)
(-0.000170789 -0.000156775 0.0960445)
(-0.000133015 -9.86513e-05 0.0864923)
(0.000133646 -6.98988e-05 0.0839914)
(0.000148937 -0.000146762 0.0941091)
(0.000182586 -0.000214736 0.0984011)
(0.000178825 -0.000236383 0.0994794)
(0.000166381 -0.000250891 0.099779)
(0.000150882 -0.000262601 0.0998841)
(0.000134979 -0.000272963 0.0999409)
(0.000119433 -0.000282279 0.0999823)
(0.000104242 -0.000290406 0.100015)
(8.90477e-05 -0.000297158 0.10004)
(7.35528e-05 -0.000302475 0.10006)
(5.76199e-05 -0.000306437 0.100075)
(4.12356e-05 -0.000309201 0.100085)
(2.44861e-05 -0.00031092 0.100091)
(7.51e-06 -0.000311717 0.100094)
(-9.53915e-06 -0.000311653 0.100094)
(-2.64888e-05 -0.000310735 0.10009)
(-4.31853e-05 -0.000308895 0.100083)
(-5.94932e-05 -0.000306017 0.100073)
(-7.53306e-05 -0.000301952 0.100058)
(-9.07111e-05 -0.00029654 0.100039)
(-0.00010577 -0.000289719 0.100015)
(-0.000120839 -0.000281532 0.0999839)
(-0.000136232 -0.000272183 0.0999444)
(-0.000151996 -0.000261816 0.0998894)
(-0.000167353 -0.000250117 0.0997858)
(-0.000179633 -0.000235677 0.0994868)
(-0.000183196 -0.00021415 0.0984072)
(-0.000149336 -0.000146365 0.0941113)
(-0.000133853 -6.96964e-05 0.0839891)