/*--------------------------------*- C++ -*----------------------------------*\
| =========                 |                                                 |
| \\      /  F ield         | OpenFOAM: The Open Source CFD Toolbox           |
|  \\    /   O peration     | Version:  2312                                  |
|   \\  /    A nd           | Website:  www.openfoam.com                      |
|    \\/     M anipulation  |                                                 |
\*---------------------------------------------------------------------------*/
FoamFile
{
    version     2.0;
    format      ascii;
    arch        "LSB;label=32;scalar=64";
    class       volScalarField;
    location    "450";
    object      alphat;
}
// * * * * * * * * * * * * * * * * * * * * * * * * * * * * * * * * * * * * * //

dimensions      [1 -1 -1 0 0 0 0];

internalField   nonuniform List<scalar> 
27000
(
0.0039523
0.00670738
0.0093638
0.0117393
0.0140472
0.0162009
0.0181561
0.0198072
0.0212272
0.0224397
0.0234395
0.0242315
0.0248225
0.0252154
0.0254116
0.0254115
0.0252153
0.0248223
0.0242312
0.0234393
0.0224395
0.021227
0.019807
0.0181559
0.0162009
0.0140472
0.0117394
0.00936399
0.00670736
0.00395246
0.00575165
0.00128068
0.00515938
0.00907693
0.0131621
0.0170419
0.0207064
0.0241146
0.0272023
0.0299492
0.0323372
0.0343263
0.0358643
0.0369112
0.0374411
0.0374412
0.0369114
0.0358647
0.0343269
0.0323377
0.0299493
0.0272022
0.0241145
0.0207063
0.0170417
0.0131622
0.00907739
0.00516001
0.00128066
0.00575212
0.00922712
0.00714103
0.0145135
0.0261434
0.0368786
0.0462394
0.0547951
0.0628226
0.0701391
0.0766081
0.0821562
0.0867164
0.0902111
0.0925755
0.0937677
0.0937676
0.0925754
0.090211
0.0867165
0.0821552
0.0766049
0.0701341
0.0628161
0.0547876
0.0462313
0.0368726
0.0261396
0.0145124
0.00714171
0.0092274
0.012155
0.0108396
0.0260443
0.0526503
0.078288
0.0963906
0.109866
0.120911
0.130245
0.138026
0.144426
0.14952
0.153332
0.155871
0.15714
0.15714
0.15587
0.153331
0.149518
0.144421
0.138018
0.130233
0.120896
0.10985
0.0963748
0.0782755
0.0526409
0.0260398
0.01084
0.0121554
0.0149191
0.0144749
0.0368628
0.0762012
0.113342
0.139197
0.156022
0.167818
0.176743
0.183253
0.188299
0.192219
0.195089
0.196974
0.197909
0.197909
0.196973
0.195087
0.192215
0.188294
0.183249
0.176733
0.167804
0.156005
0.139181
0.113328
0.0761887
0.0368562
0.0144747
0.0149195
0.0174793
0.0184135
0.0476939
0.0952368
0.137839
0.167217
0.185417
0.1968
0.20432
0.209431
0.213026
0.215612
0.217425
0.218586
0.219154
0.219153
0.218585
0.217423
0.215608
0.213021
0.209424
0.20431
0.196787
0.185403
0.167201
0.137824
0.0952236
0.0476863
0.0184129
0.0174797
0.0198115
0.0225597
0.05858
0.111496
0.155745
0.185098
0.202835
0.213204
0.219353
0.223108
0.225481
0.227028
0.228036
0.228652
0.228946
0.228945
0.228651
0.228034
0.227025
0.225477
0.223102
0.219344
0.213193
0.202824
0.185086
0.155733
0.111484
0.0585732
0.0225592
0.0198119
0.0218958
0.0267597
0.0691347
0.125593
0.169833
0.197325
0.213346
0.222247
0.227096
0.22974
0.231201
0.232029
0.232506
0.232771
0.23289
0.23289
0.23277
0.232504
0.232026
0.231197
0.229734
0.227089
0.222239
0.213338
0.197315
0.169823
0.125584
0.0691291
0.0267591
0.0218963
0.0237093
0.0308864
0.079001
0.137681
0.18097
0.206047
0.219968
0.227283
0.230956
0.232726
0.233543
0.233905
0.234057
0.234118
0.234139
0.234138
0.234117
0.234055
0.233902
0.233539
0.23272
0.23095
0.227277
0.219962
0.20604
0.180963
0.137675
0.0789967
0.0308858
0.0237097
0.0252639
0.0347793
0.0879483
0.147809
0.188838
0.212102
0.224207
0.230132
0.232835
0.233947
0.234327
0.234401
0.234372
0.234325
0.234296
0.234296
0.234324
0.234369
0.234398
0.234323
0.233943
0.23283
0.230127
0.224202
0.212098
0.188834
0.147806
0.0879455
0.0347787
0.0252643
0.02656
0.038284
0.0957607
0.156291
0.195387
0.216553
0.227016
0.231786
0.233732
0.234372
0.234467
0.234375
0.234251
0.234155
0.234105
0.234104
0.234154
0.234249
0.234372
0.234463
0.234368
0.233728
0.231783
0.227013
0.216551
0.195385
0.15629
0.0957594
0.0382835
0.0265603
0.0275969
0.0412644
0.102222
0.163059
0.200491
0.219841
0.228925
0.232777
0.234158
0.234471
0.234387
0.234205
0.234039
0.233926
0.23387
0.23387
0.233925
0.234037
0.234202
0.234384
0.234468
0.234155
0.232775
0.228923
0.21984
0.200491
0.16306
0.102222
0.0412642
0.0275971
0.0283745
0.0436054
0.107182
0.168135
0.204211
0.222156
0.230196
0.233375
0.234359
0.234457
0.234268
0.23404
0.23386
0.233746
0.233691
0.233691
0.233745
0.233859
0.234039
0.234266
0.234455
0.234357
0.233375
0.230196
0.222157
0.204212
0.168136
0.107184
0.0436054
0.0283746
0.0288931
0.045217
0.110541
0.171531
0.206636
0.223628
0.230975
0.233718
0.234452
0.234421
0.234174
0.233927
0.233745
0.233633
0.233582
0.233581
0.233633
0.233744
0.233926
0.234173
0.234421
0.234451
0.233718
0.230977
0.22363
0.206639
0.171533
0.110544
0.0452174
0.028893
0.0291527
0.0460376
0.112233
0.173222
0.207829
0.224341
0.231345
0.233873
0.234488
0.234397
0.234125
0.23387
0.233689
0.23358
0.233531
0.233531
0.23358
0.233689
0.23387
0.234125
0.234397
0.234489
0.233875
0.231347
0.224344
0.207833
0.173226
0.112238
0.0460385
0.0291524
0.0291532
0.0460367
0.11223
0.173219
0.207827
0.22434
0.231344
0.233873
0.234487
0.234396
0.234124
0.233869
0.233688
0.233579
0.23353
0.23353
0.233579
0.233688
0.23387
0.234125
0.234397
0.234489
0.233875
0.231347
0.224344
0.207832
0.173225
0.112236
0.046038
0.0291527
0.0288946
0.0452144
0.110532
0.171522
0.206631
0.223625
0.230974
0.233716
0.23445
0.234419
0.234171
0.233923
0.233741
0.233629
0.233578
0.233578
0.23363
0.233742
0.233925
0.234173
0.234421
0.234452
0.233719
0.230977
0.22363
0.206637
0.171529
0.110539
0.0452161
0.028894
0.0283769
0.0436015
0.107168
0.168121
0.204203
0.222152
0.230194
0.233374
0.234357
0.234454
0.234264
0.234036
0.233855
0.23374
0.233685
0.233686
0.233741
0.233856
0.234037
0.234266
0.234456
0.234359
0.233377
0.230198
0.222158
0.20421
0.16813
0.107176
0.0436035
0.0283761
0.0276
0.0412597
0.102203
0.163042
0.200481
0.219837
0.228923
0.232777
0.234156
0.234468
0.234383
0.2342
0.234033
0.23392
0.233864
0.233864
0.23392
0.234035
0.234201
0.234385
0.23447
0.234159
0.23278
0.228928
0.219843
0.200489
0.163053
0.102213
0.0412619
0.027599
0.0265637
0.0382791
0.0957395
0.156271
0.195376
0.21655
0.227016
0.231787
0.233732
0.234371
0.234464
0.234371
0.234246
0.234149
0.234099
0.234099
0.23415
0.234247
0.234373
0.234466
0.234373
0.233735
0.23179
0.227021
0.216556
0.195385
0.156283
0.0957494
0.0382813
0.0265626
0.025268
0.0347748
0.087927
0.147788
0.188827
0.212099
0.224207
0.230134
0.232836
0.233948
0.234326
0.234399
0.234368
0.234321
0.234292
0.234292
0.234322
0.234369
0.234401
0.234328
0.23395
0.232839
0.230137
0.224212
0.212106
0.188836
0.1478
0.0879366
0.0347769
0.0252669
0.0237135
0.0308831
0.0789821
0.13766
0.180958
0.206042
0.219967
0.227284
0.230958
0.232727
0.233544
0.233904
0.234055
0.234115
0.234136
0.234136
0.234116
0.234057
0.233906
0.233546
0.23273
0.230961
0.227288
0.219973
0.20605
0.180968
0.137672
0.0789907
0.0308848
0.0237124
0.0218999
0.026758
0.0691181
0.125571
0.169819
0.197314
0.213339
0.222243
0.227095
0.22974
0.231202
0.232028
0.232503
0.232767
0.232887
0.232887
0.232769
0.232505
0.232031
0.231204
0.229743
0.227098
0.222247
0.213346
0.197323
0.16983
0.125583
0.0691261
0.0267592
0.0218989
0.0198146
0.02256
0.0585654
0.11147
0.155719
0.185076
0.202817
0.21319
0.219345
0.223105
0.225478
0.227023
0.228029
0.228644
0.228938
0.228938
0.228646
0.228032
0.227026
0.225482
0.223109
0.219349
0.213196
0.202824
0.185086
0.155731
0.111482
0.0585722
0.0225605
0.0198139
0.017482
0.0184137
0.0476762
0.0952039
0.137799
0.167185
0.185382
0.196773
0.204303
0.209422
0.213014
0.215596
0.217407
0.218566
0.219134
0.219134
0.218568
0.21741
0.2156
0.213019
0.209427
0.204309
0.19678
0.18539
0.167195
0.137811
0.0952156
0.0476824
0.0184138
0.0174814
0.0149213
0.0144761
0.0368484
0.0761616
0.113285
0.139138
0.155968
0.167784
0.176719
0.183244
0.18827
0.192183
0.19505
0.196933
0.197868
0.197869
0.196936
0.195054
0.192189
0.188277
0.183253
0.176728
0.167792
0.155977
0.139147
0.113296
0.0761714
0.036853
0.0144759
0.0149209
0.0121567
0.0108417
0.0260346
0.0526108
0.0782319
0.0963297
0.109807
0.120857
0.130195
0.137979
0.144377
0.149468
0.153275
0.155809
0.157076
0.157077
0.155812
0.15328
0.149475
0.144384
0.137987
0.130204
0.120865
0.109815
0.0963365
0.0782384
0.0526175
0.0260373
0.0108411
0.0121564
0.0092281
0.00714214
0.0145124
0.02613
0.0368551
0.0462094
0.0547667
0.062792
0.0701066
0.0765744
0.0821208
0.0866757
0.0901624
0.0925203
0.0937101
0.0937109
0.0925229
0.0901668
0.0866815
0.0821272
0.0765808
0.0701129
0.0627978
0.0547713
0.0462127
0.0368577
0.026132
0.0145128
0.0071415
0.00922785
0.0057527
0.00128089
0.00516134
0.00907876
0.013163
0.0170416
0.020706
0.0241134
0.0272001
0.0299458
0.0323312
0.0343182
0.0358545
0.0369001
0.0374295
0.0374297
0.0369007
0.0358554
0.0343193
0.0323323
0.0299467
0.0272008
0.0241138
0.020706
0.0170415
0.0131627
0.00907836
0.00516111
0.0012808
0.00575249
0.00395266
0.00670772
0.00936478
0.0117407
0.014049
0.0162033
0.0181588
0.0198103
0.0212306
0.0224436
0.0234447
0.024237
0.0248282
0.0252212
0.0254174
0.0254173
0.025221
0.0248278
0.0242365
0.0234441
0.0224431
0.0212301
0.0198097
0.0181583
0.0162028
0.0140486
0.0117403
0.00936446
0.00670747
0.00395252
0.00355772
0.00608301
0.00869116
0.0110705
0.0134517
0.015702
0.0177741
0.019546
0.021081
0.0224043
0.0235268
0.0244374
0.0251239
0.0255827
0.0258124
0.0258125
0.0255828
0.0251241
0.0244377
0.0235271
0.0224046
0.0210812
0.0195463
0.0177743
0.0157021
0.0134516
0.0110702
0.00869074
0.0060824
0.00355739
0.00511555
0.00160666
0.00744556
0.0110163
0.0146012
0.017618
0.0202092
0.0226102
0.0246967
0.026477
0.0279469
0.0291113
0.0299826
0.0305646
0.0308562
0.0308563
0.0305647
0.0299828
0.0291114
0.027947
0.0264774
0.0246971
0.0226105
0.020209
0.017615
0.014598
0.0110139
0.00744327
0.0016061
0.00511508
0.00868086
0.0101779
0.0132278
0.0167025
0.0218606
0.0273042
0.0323378
0.0367289
0.0407272
0.0442942
0.0473298
0.0497808
0.0516262
0.052855
0.0534699
0.0534695
0.0528537
0.0516233
0.0497727
0.0473209
0.0442915
0.0407269
0.03673
0.0323395
0.0273077
0.0218633
0.0167045
0.0132285
0.0101766
0.00868039
0.0115692
0.013399
0.0179051
0.0256888
0.0360098
0.0466869
0.0561218
0.0643086
0.0715606
0.0780501
0.083647
0.0881765
0.0915772
0.0938312
0.0949512
0.0949488
0.0938238
0.0915648
0.0881593
0.0836299
0.0780378
0.0715549
0.0643077
0.0561256
0.0466933
0.0360143
0.0256926
0.017907
0.0133963
0.0115687
0.0144291
0.0158815
0.022802
0.035939
0.0545625
0.0740615
0.0901456
0.102602
0.11273
0.121447
0.128583
0.13414
0.138215
0.140827
0.142091
0.14209
0.140822
0.138206
0.134129
0.128573
0.121438
0.112729
0.102609
0.0901602
0.0740797
0.054577
0.0359484
0.0228069
0.0158791
0.0144289
0.017147
0.0181053
0.0286179
0.0471427
0.0736049
0.100245
0.122366
0.138231
0.149743
0.158537
0.165319
0.170428
0.174088
0.176431
0.177568
0.177567
0.176429
0.174084
0.170424
0.165316
0.158537
0.149748
0.138241
0.122384
0.100268
0.0736264
0.0471552
0.0286233
0.0181031
0.0171472
0.0196605
0.0205468
0.0339752
0.05834
0.0910649
0.122602
0.146975
0.164226
0.176177
0.184597
0.190635
0.19495
0.197929
0.1998
0.200701
0.2007
0.199799
0.197928
0.194949
0.190635
0.184599
0.176181
0.164233
0.146987
0.12262
0.0910836
0.0583504
0.0339791
0.0205469
0.0196609
0.0219645
0.0230277
0.0390532
0.0688744
0.106076
0.139847
0.164846
0.182162
0.193787
0.20155
0.206766
0.210272
0.212576
0.213974
0.214635
0.214635
0.213974
0.212575
0.210272
0.206767
0.201552
0.19379
0.182167
0.164854
0.139857
0.106087
0.0688804
0.0390553
0.0230279
0.021965
0.0240633
0.0253396
0.0439226
0.0787744
0.119
0.153227
0.177811
0.194408
0.205225
0.212146
0.216542
0.219317
0.221036
0.222033
0.22249
0.22249
0.222033
0.221037
0.219318
0.216543
0.212148
0.205227
0.19441
0.177814
0.153231
0.119004
0.0787761
0.043923
0.0253396
0.024064
0.0259021
0.0274198
0.0483445
0.0874481
0.130176
0.163786
0.187316
0.202801
0.212595
0.218616
0.222244
0.224394
0.225639
0.226318
0.226617
0.226617
0.226318
0.225639
0.224395
0.222245
0.218617
0.212595
0.202801
0.187315
0.163786
0.130174
0.0874463
0.0483432
0.0274192
0.025903
0.0274601
0.0292335
0.0521952
0.0946198
0.138537
0.171755
0.194214
0.208552
0.217326
0.222506
0.225466
0.227106
0.227983
0.228424
0.228607
0.228607
0.228424
0.227983
0.227106
0.225466
0.222505
0.217324
0.208549
0.194211
0.171751
0.138532
0.0946151
0.0521922
0.0292324
0.0274611
0.0287226
0.0307442
0.0554106
0.100371
0.144889
0.177617
0.199123
0.212452
0.220342
0.224813
0.227234
0.228481
0.229087
0.229359
0.229461
0.229461
0.229359
0.229086
0.228479
0.227232
0.22481
0.220338
0.212447
0.199117
0.177609
0.14488
0.100364
0.0554062
0.0307425
0.0287238
0.0296786
0.0319168
0.0579219
0.104753
0.149551
0.18178
0.202497
0.215023
0.222222
0.226152
0.228173
0.229139
0.229558
0.229718
0.229766
0.229766
0.229717
0.229556
0.229136
0.228169
0.226147
0.222216
0.215015
0.202488
0.181769
0.149539
0.104742
0.0579162
0.0319146
0.0296799
0.0303199
0.0327199
0.0596479
0.107734
0.152644
0.184471
0.20462
0.216588
0.223318
0.226886
0.228645
0.229432
0.229735
0.229827
0.229844
0.229843
0.229825
0.229733
0.229428
0.22864
0.226879
0.22331
0.216579
0.204609
0.184458
0.152629
0.107721
0.0596414
0.0327174
0.0303213
0.0306415
0.0331312
0.0605307
0.109239
0.154188
0.185797
0.205649
0.217332
0.223824
0.227211
0.228842
0.229542
0.229791
0.229851
0.229853
0.229852
0.229849
0.229788
0.229538
0.228836
0.227204
0.223815
0.217321
0.205636
0.185782
0.154172
0.109225
0.0605241
0.0331287
0.030643
0.030641
0.0331321
0.0605325
0.109243
0.154191
0.185798
0.20565
0.217334
0.223827
0.227215
0.228846
0.229547
0.229796
0.229856
0.229858
0.229857
0.229853
0.229792
0.229541
0.228839
0.227206
0.223817
0.217322
0.205637
0.185783
0.154174
0.109227
0.0605257
0.0331294
0.0306426
0.0303185
0.0327228
0.0596534
0.107746
0.152651
0.184475
0.204624
0.216593
0.223325
0.226895
0.228656
0.229444
0.229749
0.229841
0.229858
0.229858
0.229839
0.229745
0.229439
0.228649
0.226886
0.223315
0.216582
0.204611
0.184461
0.152634
0.107729
0.0596461
0.0327197
0.0303202
0.0296763
0.0319214
0.0579305
0.10477
0.149562
0.181785
0.202502
0.21503
0.222233
0.226166
0.22819
0.229158
0.22958
0.22974
0.229789
0.229788
0.229738
0.229576
0.229153
0.228183
0.226157
0.222223
0.215019
0.20249
0.181772
0.149546
0.104755
0.0579234
0.0319182
0.029678
0.0287196
0.0307502
0.0554215
0.100394
0.144901
0.177622
0.199128
0.212459
0.220353
0.224829
0.227254
0.228505
0.229114
0.229388
0.22949
0.229489
0.229386
0.22911
0.2285
0.227248
0.224821
0.220345
0.21245
0.199118
0.177611
0.144887
0.10038
0.0554151
0.0307471
0.0287213
0.0274564
0.0292402
0.0522073
0.0946439
0.138548
0.171758
0.194216
0.208557
0.217336
0.222522
0.225487
0.227132
0.228012
0.228456
0.22864
0.228639
0.228454
0.228009
0.227127
0.225482
0.222516
0.217329
0.208549
0.194208
0.171749
0.138537
0.0946317
0.052202
0.0292374
0.0274581
0.025898
0.0274267
0.0483551
0.0874693
0.130185
0.163787
0.187314
0.202802
0.212601
0.218629
0.222263
0.224419
0.225668
0.22635
0.22665
0.226649
0.226348
0.225665
0.224415
0.222259
0.218625
0.212596
0.202796
0.187307
0.163779
0.130175
0.0874592
0.0483509
0.0274241
0.0258995
0.0240588
0.0253458
0.0439249
0.0787891
0.119011
0.153224
0.177804
0.194404
0.205227
0.212154
0.216556
0.219338
0.221062
0.222061
0.222519
0.222519
0.222059
0.221059
0.219335
0.216553
0.212151
0.205223
0.1944
0.177799
0.153217
0.119
0.0787813
0.0439241
0.0253436
0.0240602
0.0219599
0.0230325
0.0390585
0.0688821
0.106075
0.139836
0.164833
0.182152
0.193783
0.201552
0.206775
0.210287
0.212596
0.213997
0.214659
0.214659
0.213996
0.212594
0.210286
0.206773
0.20155
0.193781
0.18215
0.164829
0.13983
0.106066
0.0688755
0.039056
0.0230306
0.0219611
0.0196574
0.0205483
0.0339793
0.0583373
0.0910451
0.122579
0.146953
0.164209
0.176166
0.184593
0.190639
0.194961
0.197944
0.199818
0.200719
0.200719
0.199816
0.197942
0.194959
0.190637
0.184592
0.176166
0.164208
0.14695
0.122573
0.0910402
0.0583344
0.0339777
0.0205471
0.0196581
0.017144
0.0180963
0.0286309
0.0471357
0.0735754
0.100207
0.122333
0.138207
0.149727
0.158526
0.165319
0.170439
0.174104
0.176448
0.177585
0.177584
0.176446
0.174101
0.170435
0.165316
0.158523
0.149726
0.138205
0.122329
0.100203
0.0735726
0.0471346
0.0286283
0.0180967
0.0171444
0.0144255
0.0158746
0.0228109
0.0359429
0.0545399
0.0740151
0.0900939
0.102567
0.112705
0.121423
0.128586
0.134154
0.138237
0.140846
0.142113
0.142112
0.140843
0.13823
0.134146
0.128578
0.121415
0.112699
0.102563
0.0900904
0.0740133
0.0545416
0.0359454
0.0228097
0.015875
0.0144259
0.0115663
0.0133933
0.0179009
0.0256977
0.0360079
0.0466616
0.0560936
0.0642838
0.07154
0.0780349
0.083629
0.0881613
0.0915776
0.093848
0.0949761
0.0949743
0.0938425
0.0915683
0.0881498
0.0836173
0.078025
0.0715339
0.0642803
0.0560924
0.0466626
0.0360126
0.0257
0.0179008
0.0133937
0.0115666
0.00867932
0.0101779
0.0132262
0.0167068
0.0218685
0.0273154
0.0323398
0.0367327
0.0407318
0.0442953
0.0473082
0.0497614
0.0516316
0.0528839
0.0535054
0.0535051
0.0528827
0.051628
0.0497566
0.0473032
0.0442923
0.0407297
0.0367318
0.0323402
0.0273169
0.0218704
0.0167077
0.0132264
0.010178
0.00867953
0.00511432
0.00160665
0.00744336
0.0110134
0.0145949
0.0176113
0.020213
0.0226168
0.0247052
0.0264873
0.0279601
0.0291275
0.0300017
0.0305856
0.030878
0.030878
0.0305855
0.0300014
0.029127
0.0279594
0.0264867
0.0247042
0.0226157
0.0202119
0.0176104
0.0145946
0.0110136
0.00744395
0.00160676
0.00511447
0.00355701
0.00608182
0.00868902
0.0110674
0.0134475
0.0156971
0.0177688
0.0195416
0.0210763
0.0223992
0.0235193
0.0244295
0.0251158
0.0255745
0.0258042
0.0258042
0.0255746
0.025116
0.0244298
0.0235197
0.0223993
0.0210765
0.0195417
0.017769
0.0156973
0.0134478
0.0110678
0.00868941
0.00608218
0.00355718
0.00337651
0.0057398
0.00825308
0.0105673
0.0128893
0.015083
0.0170983
0.0188364
0.0203598
0.0216784
0.0227787
0.0236602
0.0243242
0.0247685
0.0249912
0.0249913
0.0247687
0.0243245
0.0236606
0.0227792
0.0216791
0.0203605
0.0188371
0.017099
0.0150837
0.01289
0.010568
0.00825364
0.0057402
0.00337681
0.00489749
0.00256309
0.0107591
0.0160485
0.0211147
0.0255948
0.0294052
0.0323692
0.0346435
0.0363643
0.0376635
0.0386372
0.0393383
0.0397949
0.0400205
0.0400207
0.0397955
0.0393392
0.0386384
0.0376648
0.0363654
0.0346444
0.0323704
0.0294068
0.0255982
0.0211176
0.01605
0.01076
0.0025637
0.00489804
0.00830862
0.0131855
0.0173043
0.0210736
0.0240959
0.0272042
0.0301949
0.0330587
0.0357908
0.0382919
0.0404601
0.0422556
0.0436402
0.044584
0.0450613
0.0450603
0.0445812
0.0436359
0.0422518
0.0404558
0.0382851
0.035784
0.0330553
0.0301928
0.0272015
0.0240928
0.0210701
0.0173018
0.0131863
0.00830889
0.0110755
0.018314
0.023329
0.0248584
0.0286747
0.0349986
0.0416003
0.047757
0.053267
0.0579673
0.0618528
0.0650202
0.067437
0.0690741
0.0699012
0.0699019
0.0690764
0.0674409
0.0650258
0.0618587
0.0579713
0.0532658
0.0477553
0.0415994
0.0349983
0.0286727
0.0248559
0.0233283
0.0183164
0.0110757
0.0137969
0.0222486
0.0264302
0.0295309
0.0387296
0.0506541
0.0619195
0.071728
0.0798706
0.0867647
0.092496
0.0971343
0.100631
0.103079
0.10435
0.10435
0.103078
0.100633
0.0971361
0.0924967
0.086764
0.0798658
0.0717194
0.0619072
0.0506419
0.0387294
0.0295297
0.0264299
0.0222508
0.0137969
0.0164114
0.0256656
0.0286621
0.0358969
0.0507576
0.0685276
0.0857006
0.100913
0.113067
0.122565
0.12998
0.135651
0.139704
0.142333
0.143642
0.143642
0.142333
0.139703
0.135647
0.129974
0.122557
0.113056
0.100899
0.085678
0.0685088
0.0507463
0.0358959
0.0286625
0.0256676
0.0164111
0.0188782
0.0282585
0.0310368
0.0435855
0.063059
0.0861843
0.109574
0.128568
0.142524
0.152786
0.16039
0.165966
0.169872
0.172351
0.173559
0.173558
0.172351
0.169871
0.165963
0.160386
0.152781
0.142518
0.128559
0.10956
0.0861662
0.0630489
0.043585
0.0310377
0.0282589
0.0188777
0.0211517
0.0303311
0.0341194
0.0510941
0.0748081
0.103204
0.129611
0.149814
0.164421
0.174802
0.182166
0.187342
0.190855
0.193036
0.19408
0.19408
0.193035
0.190854
0.18734
0.182164
0.1748
0.164418
0.14981
0.129605
0.103198
0.0748058
0.051097
0.0341199
0.0303318
0.021151
0.0231873
0.0320094
0.0375047
0.0574836
0.0851394
0.117733
0.145114
0.165499
0.179975
0.190032
0.196938
0.201617
0.204686
0.20654
0.207414
0.207414
0.20654
0.204686
0.201616
0.196938
0.190032
0.179975
0.165498
0.145113
0.117735
0.0851449
0.0574887
0.037506
0.0320107
0.0231865
0.0249802
0.0333808
0.040858
0.0634748
0.0950969
0.12965
0.157024
0.176957
0.190873
0.200348
0.20668
0.210831
0.213463
0.215007
0.21572
0.21572
0.215007
0.213463
0.210831
0.206681
0.200349
0.190875
0.17696
0.157028
0.129655
0.0951059
0.0634815
0.0408601
0.0333827
0.0249792
0.0265103
0.0345043
0.0439307
0.0687628
0.10375
0.138945
0.165994
0.185245
0.198436
0.207233
0.212963
0.216604
0.218837
0.220106
0.220679
0.220679
0.220107
0.218838
0.216606
0.212966
0.207236
0.19844
0.18525
0.166001
0.138954
0.103763
0.0687707
0.0439335
0.0345068
0.026509
0.0277587
0.0354097
0.0464977
0.0731174
0.110647
0.146018
0.172578
0.191123
0.203597
0.211745
0.216921
0.220112
0.222003
0.223044
0.223503
0.223503
0.223045
0.222005
0.220115
0.216925
0.21175
0.203603
0.19113
0.172587
0.146029
0.110663
0.0731264
0.0465013
0.0354129
0.0277573
0.0287096
0.0361036
0.0484312
0.0763797
0.115732
0.151104
0.177193
0.195127
0.206995
0.214603
0.219327
0.222159
0.223785
0.224651
0.225023
0.225023
0.224652
0.223788
0.222163
0.219332
0.21461
0.207003
0.195136
0.177204
0.151119
0.115751
0.0763912
0.0484352
0.0361076
0.028708
0.0293511
0.0365853
0.0497605
0.0785363
0.11906
0.154388
0.180122
0.197615
0.209052
0.216278
0.220685
0.223269
0.224714
0.225462
0.225776
0.225777
0.225464
0.224717
0.223274
0.220691
0.216286
0.209061
0.197626
0.180135
0.154405
0.11908
0.0785493
0.049765
0.0365905
0.0293494
0.0296748
0.0368666
0.0504427
0.0796181
0.120702
0.155997
0.181543
0.198806
0.210019
0.217048
0.221292
0.22375
0.225104
0.225793
0.226078
0.226079
0.225795
0.225107
0.223756
0.2213
0.217057
0.21003
0.198819
0.181557
0.156014
0.120725
0.0796325
0.0504476
0.0368732
0.0296731
0.0296751
0.0368649
0.0504421
0.0796145
0.120698
0.155993
0.181539
0.198803
0.210016
0.217044
0.221288
0.223746
0.225099
0.225788
0.226073
0.226074
0.22579
0.225103
0.223752
0.221296
0.217054
0.210027
0.198816
0.181555
0.156012
0.120722
0.0796301
0.0504471
0.0368716
0.0296734
0.0293519
0.0365813
0.0497586
0.0785257
0.119047
0.154377
0.180111
0.197604
0.209041
0.216266
0.220672
0.223256
0.2247
0.225448
0.225761
0.225762
0.22545
0.224704
0.223262
0.22068
0.216276
0.209053
0.197618
0.180127
0.154396
0.119071
0.0785419
0.0497635
0.0365881
0.0293502
0.0287111
0.0360974
0.0484279
0.0763623
0.115711
0.151086
0.177176
0.19511
0.206978
0.214585
0.219307
0.222138
0.223762
0.224627
0.224999
0.225
0.22463
0.223766
0.222144
0.219315
0.214594
0.206989
0.195123
0.177192
0.151105
0.115736
0.0763788
0.0484326
0.036104
0.0287095
0.0277606
0.0354014
0.0464925
0.0730935
0.11062
0.145995
0.172557
0.191101
0.203574
0.21172
0.216894
0.220083
0.221973
0.223012
0.22347
0.223471
0.223015
0.221976
0.220089
0.216901
0.211729
0.203585
0.191114
0.172572
0.146013
0.110643
0.0731086
0.0464969
0.0354083
0.0277592
0.0265126
0.0344941
0.0439206
0.0687334
0.103718
0.138919
0.16597
0.18522
0.198409
0.207204
0.212931
0.216569
0.218799
0.220067
0.220639
0.22064
0.220069
0.218802
0.216574
0.212937
0.207212
0.198419
0.185232
0.165984
0.138935
0.103739
0.0687475
0.043923
0.0345011
0.0265114
0.0249828
0.0333693
0.0408462
0.0634444
0.0950621
0.12962
0.156998
0.176931
0.190844
0.200315
0.206643
0.21079
0.213419
0.214962
0.215674
0.215675
0.214963
0.213422
0.210794
0.206648
0.200322
0.190853
0.176941
0.15701
0.129636
0.0950806
0.0634576
0.0408495
0.0333763
0.024982
0.02319
0.0319972
0.0374941
0.0574559
0.0850947
0.117699
0.145087
0.165472
0.179945
0.189996
0.196897
0.201571
0.204637
0.20649
0.207362
0.207363
0.206491
0.204639
0.201574
0.196901
0.190002
0.179951
0.16548
0.145098
0.117715
0.0851149
0.0574675
0.0374976
0.0320041
0.0231895
0.0211543
0.0303191
0.0341047
0.051074
0.0747814
0.103183
0.129591
0.149791
0.164391
0.174765
0.18212
0.18729
0.1908
0.19298
0.194024
0.194025
0.19298
0.190801
0.187291
0.182122
0.174767
0.164395
0.149796
0.129598
0.103194
0.074794
0.0510826
0.03411
0.0303254
0.0211542
0.0188799
0.028248
0.0310222
0.0435755
0.0630532
0.0861744
0.109561
0.128549
0.142494
0.152744
0.160336
0.165903
0.169807
0.172288
0.173497
0.173497
0.172289
0.169807
0.165901
0.160334
0.152743
0.142494
0.128551
0.109567
0.0861854
0.0630594
0.0435767
0.0310276
0.0282534
0.0188802
0.0164132
0.0256637
0.0286459
0.0358845
0.0507585
0.0685281
0.0856988
0.100896
0.113032
0.122511
0.129907
0.135565
0.139622
0.142259
0.143571
0.143571
0.142258
0.13962
0.135559
0.1299
0.122506
0.113029
0.100896
0.0857051
0.0685321
0.0507606
0.0358833
0.0286506
0.0256668
0.0164136
0.0137993
0.0222464
0.0264176
0.0295159
0.0387115
0.0506608
0.0619259
0.0717123
0.0798378
0.0867098
0.0924165
0.0970385
0.100529
0.102995
0.10427
0.104269
0.102993
0.100528
0.097037
0.0924157
0.0867133
0.079841
0.071715
0.0619281
0.050661
0.0386996
0.0295176
0.0264213
0.022248
0.0137995
0.0110772
0.0183131
0.0233254
0.0248429
0.0286559
0.0349802
0.0415827
0.0477406
0.0532481
0.0579369
0.0618158
0.0649774
0.0673881
0.0690216
0.069847
0.0698476
0.0690233
0.0673912
0.0649816
0.0618207
0.0579416
0.0532488
0.0477405
0.0415775
0.0349727
0.0286557
0.0248469
0.0233277
0.0183127
0.0110773
0.00830959
0.013183
0.0173005
0.0210611
0.0240771
0.0271798
0.0301713
0.0330306
0.0357571
0.0382555
0.0404299
0.0422228
0.0435978
0.0445336
0.0450097
0.0450089
0.0445317
0.0435959
0.042221
0.0404288
0.038255
0.0357576
0.0330332
0.0301746
0.0271829
0.0240806
0.0210645
0.017302
0.0131802
0.00830942
0.00489803
0.00256103
0.010756
0.0160428
0.0211094
0.025588
0.0293896
0.032351
0.0346235
0.0363428
0.0376398
0.0386115
0.0393113
0.0397672
0.039993
0.0399937
0.0397695
0.0393147
0.0386158
0.0376447
0.0363483
0.0346296
0.0323571
0.0293953
0.0255927
0.0211125
0.016045
0.0107565
0.00256097
0.00489792
0.00337692
0.00574062
0.00825463
0.0105697
0.0128926
0.015087
0.0171028
0.01884
0.0203636
0.0216827
0.0227843
0.0236663
0.0243306
0.0247752
0.024998
0.0249982
0.0247756
0.0243313
0.0236673
0.0227856
0.0216842
0.0203654
0.0188418
0.0171046
0.0150887
0.0128939
0.0105706
0.00825503
0.00574049
0.00337683
0.0033228
0.00564015
0.00812722
0.0104429
0.0127588
0.0149485
0.0169633
0.0186946
0.0202029
0.0215046
0.0225948
0.0234702
0.0241286
0.0245685
0.0247887
0.0247885
0.0245681
0.0241279
0.0234692
0.0225936
0.0215032
0.0202013
0.0186929
0.0169617
0.0149471
0.0127578
0.0104424
0.00812714
0.00564021
0.00332295
0.00483592
0.00296886
0.0119526
0.0183201
0.0243539
0.0297988
0.0346076
0.0386725
0.0419962
0.0446662
0.0467761
0.0483966
0.0495763
0.050347
0.0507276
0.0507273
0.0503459
0.0495745
0.0483941
0.0467729
0.0446621
0.0419915
0.0386672
0.0346025
0.0297954
0.0243531
0.018322
0.0119561
0.00296946
0.00483623
0.00818391
0.014166
0.0196594
0.0253357
0.0301498
0.0346204
0.0387685
0.0423791
0.0452303
0.0473908
0.049
0.0501795
0.0510154
0.0515559
0.0518227
0.0518234
0.051558
0.0510189
0.0501846
0.0490056
0.0473955
0.0452338
0.0423799
0.0387682
0.03462
0.0301504
0.0253375
0.0196618
0.0141692
0.00818386
0.0109352
0.0203843
0.0275084
0.0310853
0.0340228
0.0368122
0.0399935
0.0433115
0.0466759
0.0501091
0.053206
0.0557978
0.0578151
0.0591968
0.0598987
0.0598982
0.0591952
0.0578123
0.0557938
0.0532005
0.0501026
0.0466714
0.0433116
0.0399924
0.036809
0.03402
0.0310834
0.0275081
0.0203842
0.0109353
0.013624
0.0255604
0.0325576
0.0354211
0.0373548
0.0425939
0.0505177
0.0582504
0.0649583
0.0708822
0.0759334
0.079943
0.0829994
0.0850416
0.0860632
0.0860649
0.0850464
0.0830063
0.0799513
0.0759403
0.0708824
0.0649577
0.0582522
0.0505278
0.042604
0.0373474
0.0354163
0.0325557
0.0255611
0.0136239
0.0162043
0.0302557
0.0363171
0.0384074
0.0429207
0.0549279
0.0681736
0.0795149
0.0888983
0.0965997
0.102908
0.10802
0.112021
0.114794
0.116198
0.116201
0.114802
0.112034
0.108041
0.102928
0.0966135
0.0889096
0.0795261
0.0681896
0.0549511
0.0429277
0.0384035
0.0363159
0.0302561
0.0162041
0.0186159
0.0343827
0.0392371
0.0411932
0.0514259
0.0684679
0.0856678
0.101662
0.115496
0.126265
0.134441
0.140538
0.144869
0.147702
0.149107
0.149108
0.147707
0.144876
0.140548
0.134455
0.126276
0.115504
0.101668
0.0856763
0.068475
0.0514312
0.0411905
0.0392366
0.0343818
0.0186157
0.0208283
0.0379118
0.0413165
0.044733
0.0608405
0.0812044
0.102743
0.12329
0.139274
0.151033
0.159592
0.165751
0.170011
0.172705
0.174015
0.174016
0.172707
0.170014
0.165756
0.159598
0.151038
0.139277
0.12329
0.10274
0.0812009
0.0608368
0.0447294
0.0413172
0.0379105
0.0208282
0.0228167
0.0408978
0.0429549
0.0495111
0.0697564
0.0928521
0.118561
0.140668
0.157272
0.16927
0.177801
0.183773
0.187805
0.190299
0.191491
0.191492
0.1903
0.187807
0.183776
0.177804
0.169272
0.157272
0.140665
0.118553
0.0928426
0.0697471
0.0495069
0.0429554
0.0408964
0.0228167
0.0245601
0.0433584
0.0443631
0.0543437
0.0772495
0.103423
0.131678
0.153987
0.170483
0.182254
0.190499
0.196158
0.199902
0.202175
0.203248
0.203249
0.202176
0.199904
0.19616
0.1905
0.182255
0.170481
0.153983
0.131669
0.103412
0.0772385
0.0543412
0.0443631
0.0433568
0.0245603
0.0260411
0.0453377
0.0456055
0.0588403
0.0837045
0.1129
0.141743
0.163926
0.180015
0.191357
0.199195
0.204489
0.207928
0.209982
0.210941
0.210941
0.209983
0.207929
0.20449
0.199196
0.191358
0.180014
0.163922
0.141735
0.112888
0.0836921
0.0588405
0.0456048
0.0453358
0.0260414
0.0272446
0.0468728
0.0466946
0.0624584
0.0888922
0.120442
0.149345
0.171153
0.186749
0.197615
0.205028
0.20996
0.213112
0.214967
0.215822
0.215823
0.214968
0.213114
0.209961
0.205029
0.197615
0.186748
0.17115
0.149338
0.120429
0.0888773
0.062458
0.0466928
0.0468705
0.0272451
0.0281584
0.0479965
0.047616
0.0652754
0.0927769
0.125967
0.15477
0.176176
0.191316
0.201756
0.208797
0.213418
0.216329
0.218018
0.21879
0.21879
0.218019
0.216331
0.21342
0.208798
0.201757
0.191315
0.176173
0.154763
0.125954
0.0927606
0.0652762
0.0476145
0.0479939
0.0281591
0.0287727
0.0487279
0.0482842
0.0672016
0.0953602
0.129567
0.158248
0.179343
0.194144