/*--------------------------------*- C++ -*----------------------------------*\
| =========                 |                                                 |
| \\      /  F ield         | OpenFOAM: The Open Source CFD Toolbox           |
|  \\    /   O peration     | Version:  2312                                  |
|   \\  /    A nd           | Website:  www.openfoam.com                      |
|    \\/     M anipulation  |                                                 |
\*---------------------------------------------------------------------------*/
FoamFile
{
    version     2.0;
    format      ascii;
    arch        "LSB;label=32;scalar=64";
    class       volScalarField;
    location    "450";
    object      epsilon;
}
// * * * * * * * * * * * * * * * * * * * * * * * * * * * * * * * * * * * * * //

dimensions      [0 2 -3 0 0 0 0];

internalField   nonuniform List<scalar> 
27000
(
0.00152959
0.000225069
0.000110938
7.00621e-05
5.19577e-05
4.16648e-05
3.49607e-05
3.0323e-05
2.69908e-05
2.45505e-05
2.27352e-05
2.14051e-05
2.04762e-05
1.98876e-05
1.96021e-05
1.9602e-05
1.98874e-05
2.04758e-05
2.14045e-05
2.27344e-05
2.45498e-05
2.69901e-05
3.03221e-05
3.49597e-05
4.1664e-05
5.19573e-05
7.0063e-05
0.000110944
0.000225094
0.00152977
0.000151122
3.2643e-05
1.39549e-05
9.32442e-06
7.19099e-06
5.95812e-06
5.12013e-06
4.50779e-06
4.04913e-06
3.70571e-06
3.44842e-06
3.25859e-06
3.12504e-06
3.04006e-06
2.99875e-06
2.99876e-06
3.04008e-06
3.12509e-06
3.25868e-06
3.44858e-06
3.70597e-06
4.04952e-06
4.50836e-06
5.12093e-06
5.95925e-06
7.19236e-06
9.32598e-06
1.39571e-05
3.26451e-05
0.00015114
0.000100292
1.54299e-05
5.15327e-06
2.55749e-06
1.90763e-06
1.62345e-06
1.44536e-06
1.31675e-06
1.21893e-06
1.14394e-06
1.08677e-06
1.04401e-06
1.01354e-06
9.93955e-07
9.84386e-07
9.84399e-07
9.93997e-07
1.01361e-06
1.04411e-06
1.08691e-06
1.14414e-06
1.21919e-06
1.31707e-06
1.44574e-06
1.62387e-06
1.90806e-06
2.55802e-06
5.15463e-06
1.54334e-05
0.000100303
6.66737e-05
1.03373e-05
2.84826e-06
1.3844e-06
9.87717e-07
8.4832e-07
7.77624e-07
7.31057e-07
6.96662e-07
6.70513e-07
6.50368e-07
6.35127e-07
6.24165e-07
6.17069e-07
6.13586e-07
6.13596e-07
6.17097e-07
6.24213e-07
6.35194e-07
6.50456e-07
6.70618e-07
6.96783e-07
7.31189e-07
7.77753e-07
8.48431e-07
9.87809e-07
1.38458e-06
2.84896e-06
1.03399e-05
6.66813e-05
4.91941e-05
7.28649e-06
2.05323e-06
1.03706e-06
7.44275e-07
6.36596e-07
5.88643e-07
5.61889e-07
5.44078e-07
5.32393e-07
5.2366e-07
5.16945e-07
5.12082e-07
5.08915e-07
5.07355e-07
5.07361e-07
5.08934e-07
5.12113e-07
5.16986e-07
5.23706e-07
5.32432e-07
5.44123e-07
5.61931e-07
5.88673e-07
6.36609e-07
7.44282e-07
1.03713e-06
2.05365e-06
7.28818e-06
4.9199e-05
3.85977e-05
5.62814e-06
1.63585e-06
8.76199e-07
6.47282e-07
5.58459e-07
5.19456e-07
4.99975e-07
4.88833e-07
4.81947e-07
4.77321e-07
4.74019e-07
4.71692e-07
4.70194e-07
4.69459e-07
4.69463e-07
4.70206e-07
4.71711e-07
4.74042e-07
4.77344e-07
4.81966e-07
4.88847e-07
4.9998e-07
5.19449e-07
5.58448e-07
6.4727e-07
8.76242e-07
1.63611e-06
5.6292e-06
3.86013e-05
3.16026e-05
4.60422e-06
1.39285e-06
7.81835e-07
5.95492e-07
5.22188e-07
4.89535e-07
4.73978e-07
4.65997e-07
4.61583e-07
4.58939e-07
4.57235e-07
4.56108e-07
4.55406e-07
4.55066e-07
4.55069e-07
4.55412e-07
4.56117e-07
4.57245e-07
4.58947e-07
4.61585e-07
4.65993e-07
4.73965e-07
4.89514e-07
5.22163e-07
5.95477e-07
7.81859e-07
1.393e-06
4.60488e-06
3.16054e-05
2.67225e-05
3.91328e-06
1.23268e-06
7.19899e-07
5.62196e-07
5.01594e-07
4.74659e-07
4.6215e-07
4.56162e-07
4.5318e-07
4.51606e-07
4.50711e-07
4.50173e-07
4.49858e-07
4.4971e-07
4.49711e-07
4.4986e-07
4.50176e-07
4.50713e-07
4.51604e-07
4.53174e-07
4.5615e-07
4.62131e-07
4.74634e-07
5.0157e-07
5.62183e-07
7.19908e-07
1.23276e-06
3.91371e-06
2.6725e-05
2.31697e-05
3.41809e-06
1.11728e-06
6.75832e-07
5.3927e-07
4.88471e-07
4.66305e-07
4.56316e-07
4.5179e-07
4.49729e-07
4.48768e-07
4.48296e-07
4.48048e-07
4.47915e-07
4.47855e-07
4.47855e-07
4.47915e-07
4.48047e-07
4.48294e-07
4.48763e-07
4.49719e-07
4.51775e-07
4.56296e-07
4.66282e-07
4.8845e-07
5.39256e-07
6.75827e-07
1.11731e-06
3.41836e-06
2.31717e-05
2.05801e-05
3.05672e-06
1.03136e-06
6.43463e-07
5.25208e-07
4.80148e-07
4.61318e-07
4.53217e-07
4.49759e-07
4.48312e-07
4.47716e-07
4.47467e-07
4.47357e-07
4.47305e-07
4.47284e-07
4.47284e-07
4.47304e-07
4.47354e-07
4.47462e-07
4.47709e-07
4.48301e-07
4.49744e-07
4.532e-07
4.61298e-07
4.80129e-07
5.2519e-07
6.43448e-07
1.03136e-06
3.05687e-06
2.05818e-05
1.86901e-05
2.79267e-06
9.672e-07
6.18746e-07
5.13722e-07
4.74195e-07
4.58078e-07
4.51425e-07
4.48744e-07
4.47712e-07
4.47336e-07
4.47205e-07
4.4716e-07
4.47143e-07
4.47137e-07
4.47137e-07
4.47142e-07
4.47157e-07
4.472e-07
4.47329e-07
4.47702e-07
4.48732e-07
4.5141e-07
4.58061e-07
4.74177e-07
5.13702e-07
6.18724e-07
9.67175e-07
2.79273e-06
1.86915e-05
1.73288e-05
2.60228e-06
9.20222e-07
6.00396e-07
5.05022e-07
4.69812e-07
4.55846e-07
4.50302e-07
4.48187e-07
4.47435e-07
4.47193e-07
4.47127e-07
4.47112e-07
4.4711e-07
4.4711e-07
4.47109e-07
4.47108e-07
4.47109e-07
4.47122e-07
4.47187e-07
4.47427e-07
4.48177e-07
4.5029e-07
4.55833e-07
4.69796e-07
5.05002e-07
6.00369e-07
9.20179e-07
2.60227e-06
1.73299e-05
1.63862e-05
2.47031e-06
8.87288e-07
5.87325e-07
4.98824e-07
4.66725e-07
4.54325e-07
4.49578e-07
4.47857e-07
4.47291e-07
4.47132e-07
4.47101e-07
4.47101e-07
4.47105e-07
4.47108e-07
4.47107e-07
4.47104e-07
4.47099e-07
4.47098e-07
4.47128e-07
4.47285e-07
4.4785e-07
4.49569e-07
4.54314e-07
4.66711e-07
4.98806e-07
5.87299e-07
8.87231e-07
2.47024e-06
1.6387e-05
1.57924e-05
2.3871e-06
8.66347e-07
5.78867e-07
4.94843e-07
4.64759e-07
4.53372e-07
4.49137e-07
4.47665e-07
4.47212e-07
4.47102e-07
4.4709e-07
4.47097e-07
4.47104e-07
4.47108e-07
4.47107e-07
4.47104e-07
4.47096e-07
4.47088e-07
4.471e-07
4.47209e-07
4.47661e-07
4.49132e-07
4.53364e-07
4.64748e-07
4.94825e-07
5.7884e-07
8.66278e-07
2.38697e-06
1.57929e-05
1.55056e-05
2.34691e-06
8.56187e-07
5.7474e-07
4.92899e-07
4.63804e-07
4.52912e-07
4.48927e-07
4.47574e-07
4.47175e-07
4.47087e-07
4.47084e-07
4.47094e-07
4.47103e-07
4.47106e-07
4.47106e-07
4.47102e-07
4.47094e-07
4.47083e-07
4.47086e-07
4.47174e-07
4.47572e-07
4.48923e-07
4.52907e-07
4.63794e-07
4.92883e-07
5.74711e-07
8.56106e-07
2.34672e-06
1.55058e-05
1.55063e-05
2.34704e-06
8.56215e-07
5.74746e-07
4.92898e-07
4.638e-07
4.52908e-07
4.48923e-07
4.47571e-07
4.47172e-07
4.47085e-07
4.47081e-07
4.47092e-07
4.471e-07
4.47104e-07
4.47104e-07
4.47101e-07
4.47092e-07
4.47082e-07
4.47085e-07
4.47173e-07
4.47571e-07
4.48922e-07
4.52905e-07
4.63793e-07
4.92883e-07
5.74715e-07
8.56124e-07
2.34681e-06
1.55062e-05
1.57946e-05
2.38752e-06
8.66434e-07
5.78886e-07
4.9484e-07
4.6475e-07
4.53361e-07
4.49127e-07
4.47656e-07
4.47204e-07
4.47094e-07
4.47083e-07
4.4709e-07
4.47097e-07
4.47101e-07
4.47101e-07
4.47098e-07
4.47091e-07
4.47084e-07
4.47096e-07
4.47206e-07
4.47658e-07
4.49128e-07
4.5336e-07
4.64744e-07
4.94825e-07
5.78852e-07
8.66333e-07
2.38722e-06
1.57941e-05
1.639e-05
2.47102e-06
8.87436e-07
5.87358e-07
4.98822e-07
4.66711e-07
4.54309e-07
4.49563e-07
4.47844e-07
4.47279e-07
4.47121e-07
4.4709e-07
4.4709e-07
4.47095e-07
4.47097e-07
4.47097e-07
4.47096e-07
4.47092e-07
4.47093e-07
4.47124e-07
4.47282e-07
4.47847e-07
4.49565e-07
4.54309e-07
4.66707e-07
4.98807e-07
5.87321e-07
8.87325e-07
2.47066e-06
1.63891e-05
1.73343e-05
2.6033e-06
9.2044e-07
6.00448e-07
5.05024e-07
4.698e-07
4.55831e-07
4.50287e-07
4.48174e-07
4.47423e-07
4.47182e-07
4.47114e-07
4.47099e-07
4.47097e-07
4.47097e-07
4.47097e-07
4.47098e-07
4.47101e-07
4.47117e-07
4.47185e-07
4.47426e-07
4.48177e-07
4.5029e-07
4.55831e-07
4.69795e-07
5.05008e-07
6.00404e-07
9.20314e-07
2.60287e-06
1.73329e-05
1.86974e-05
2.79404e-06
9.67501e-07
6.18825e-07
5.13737e-07
4.74191e-07
4.5807e-07
4.51418e-07
4.48738e-07
4.47705e-07
4.47327e-07
4.47195e-07
4.47148e-07
4.4713e-07
4.47124e-07
4.47124e-07
4.47132e-07
4.4715e-07
4.47198e-07
4.47331e-07
4.47709e-07
4.48741e-07
4.5142e-07
4.5807e-07
4.74185e-07
5.13718e-07
6.18774e-07
9.67357e-07
2.79353e-06
1.86956e-05
2.05895e-05
3.05849e-06
1.03176e-06
6.43583e-07
5.25248e-07
4.80166e-07
4.61329e-07
4.53227e-07
4.49767e-07
4.48317e-07
4.47716e-07
4.47463e-07
4.47349e-07
4.47295e-07
4.47273e-07
4.47273e-07
4.47297e-07
4.47352e-07
4.47467e-07
4.4772e-07
4.48321e-07
4.4977e-07
4.53228e-07
4.61327e-07
4.80157e-07
5.25224e-07
6.43523e-07
1.0316e-06
3.05788e-06
2.05872e-05
2.31814e-05
3.42031e-06
1.1178e-06
6.76013e-07
5.39355e-07
4.88528e-07
4.66351e-07
4.56356e-07
4.51823e-07
4.49753e-07
4.48784e-07
4.48304e-07
4.4805e-07
4.47912e-07
4.47851e-07
4.47851e-07
4.47915e-07
4.48054e-07
4.48309e-07
4.48789e-07
4.49757e-07
4.51825e-07
4.56356e-07
4.66346e-07
4.88514e-07
5.39324e-07
6.7594e-07
1.11761e-06
3.41959e-06
2.31786e-05
2.67367e-05
3.91596e-06
1.23339e-06
7.2018e-07
5.62351e-07
5.01715e-07
4.74762e-07
4.62238e-07
4.56234e-07
4.53235e-07
4.51646e-07
4.5074e-07
4.50194e-07
4.49872e-07
4.4972e-07
4.49722e-07
4.49875e-07
4.50199e-07
4.50746e-07
4.51652e-07
4.53239e-07
4.56235e-07
4.62235e-07
4.74752e-07
5.01694e-07
5.6231e-07
7.20088e-07
1.23315e-06
3.91513e-06
2.67333e-05
3.16167e-05
4.60735e-06
1.39383e-06
7.8228e-07
5.95778e-07
5.22408e-07
4.89722e-07
4.74135e-07
4.66123e-07
4.61681e-07
4.59018e-07
4.57299e-07
4.56161e-07
4.5545e-07
4.55106e-07
4.55107e-07
4.55455e-07
4.56168e-07
4.57307e-07
4.59025e-07
4.61685e-07
4.66124e-07
4.7413e-07
4.89708e-07
5.22379e-07
5.95721e-07
7.82162e-07
1.39354e-06
4.60641e-06
3.16135e-05
3.86147e-05
5.63229e-06
1.63728e-06
8.76907e-07
6.47758e-07
5.58809e-07
5.19767e-07
5.00231e-07
4.89036e-07
4.82105e-07
4.77461e-07
4.74145e-07
4.71805e-07
4.70295e-07
4.69553e-07
4.69555e-07
4.70301e-07
4.71814e-07
4.74155e-07
4.77469e-07
4.82109e-07
4.89036e-07
5.00224e-07
5.19749e-07
5.58774e-07
6.47686e-07
8.76754e-07
1.6369e-06
5.63112e-06
3.86109e-05
4.92148e-05
7.29206e-06
2.05545e-06
1.03824e-06
7.45084e-07
6.37225e-07
5.89157e-07
5.62282e-07
5.44392e-07
5.32627e-07
5.23916e-07
5.1719e-07
5.1231e-07
5.09127e-07
5.07556e-07
5.07559e-07
5.09133e-07
5.12319e-07
5.172e-07
5.23923e-07
5.32627e-07
5.44385e-07
5.62268e-07
5.89134e-07
6.37183e-07
7.44997e-07
1.03804e-06
2.05492e-06
7.2905e-06
4.92103e-05
6.66999e-05
1.03446e-05
2.85185e-06
1.38639e-06
9.89127e-07
8.49431e-07
7.78561e-07
7.31852e-07
6.9734e-07
6.711e-07
6.50908e-07
6.35629e-07
6.24641e-07
6.17525e-07
6.14027e-07
6.14028e-07
6.17528e-07
6.24645e-07
6.35632e-07
6.50907e-07
6.71091e-07
6.97319e-07
7.31819e-07
7.78517e-07
8.49369e-07
9.89018e-07
1.38612e-06
2.85105e-06
1.03425e-05
6.66941e-05
0.000100321
1.54374e-05
5.1595e-06
2.56121e-06
1.91044e-06
1.62579e-06
1.44743e-06
1.31855e-06
1.2205e-06
1.14533e-06
1.08804e-06
1.04523e-06
1.01472e-06
9.95116e-07
9.85519e-07
9.85515e-07
9.95103e-07
1.0147e-06
1.04519e-06
1.08799e-06
1.14526e-06
1.2204e-06
1.31842e-06
1.44727e-06
1.6256e-06
1.91019e-06
2.56073e-06
5.15812e-06
1.54348e-05
0.000100313
0.000151173
3.26519e-05
1.39638e-05
9.33164e-06
7.1976e-06
5.96421e-06
5.12556e-06
4.51264e-06
4.05349e-06
3.70972e-06
3.45242e-06
3.2625e-06
3.12883e-06
3.04375e-06
3.00236e-06
3.00232e-06
3.04363e-06
3.12862e-06
3.26221e-06
3.45205e-06
3.70928e-06
4.05293e-06
4.51193e-06
5.12474e-06
5.96322e-06
7.19641e-06
9.33031e-06
1.39616e-05
3.26479e-05
0.000151157
0.00152995
0.000225123
0.000110967
7.00826e-05
5.19749e-05
4.16798e-05
3.49739e-05
3.03349e-05
2.70017e-05
2.45609e-05
2.27476e-05
2.14172e-05
2.04878e-05
1.98988e-05
1.9613e-05
1.96128e-05
1.98982e-05
2.04868e-05
2.14158e-05
2.27458e-05
2.4559e-05
2.69995e-05
3.03321e-05
3.49706e-05
4.16757e-05
5.19695e-05
7.00748e-05
0.000110954
0.0002251
0.00152981
0.00111568
0.000167895
8.87033e-05
5.8753e-05
4.56225e-05
3.79297e-05
3.27976e-05
2.91375e-05
2.64353e-05
2.44328e-05
2.2988e-05
2.19536e-05
2.12292e-05
2.07676e-05
2.05428e-05
2.05429e-05
2.0768e-05
2.12299e-05
2.19546e-05
2.29892e-05
2.44339e-05
2.64366e-05
2.91391e-05
3.27998e-05
3.79313e-05
4.56226e-05
5.87497e-05
8.86909e-05
0.000167867
0.00111537
0.000106317
3.04942e-05
2.01998e-05
1.4243e-05
1.14434e-05
9.6224e-06
8.28131e-06
7.28737e-06
6.52309e-06
5.9396e-06
5.50742e-06
5.19745e-06
4.98383e-06
4.84948e-06
4.78455e-06
4.78453e-06
4.84943e-06
4.98373e-06
5.19729e-06
5.50712e-06
5.93906e-06
6.52236e-06
7.28637e-06
8.27976e-06
9.61971e-06
1.14399e-05
1.42378e-05
2.01924e-05
3.04804e-05
0.000106268
8.35152e-05
2.20146e-05
1.13043e-05
5.83483e-06
3.75125e-06
2.88751e-06
2.4104e-06
2.08749e-06
1.85349e-06
1.68116e-06
1.5561e-06
1.46747e-06
1.40722e-06
1.36987e-06
1.35196e-06
1.35192e-06
1.36976e-06
1.40703e-06
1.46726e-06
1.55581e-06
1.68063e-06
1.8528e-06
2.08667e-06
2.40946e-06
2.88659e-06
3.75047e-06
5.8336e-06
1.13007e-05
2.20053e-05
8.3496e-05
5.74913e-05
1.60881e-05
6.51644e-06
2.85181e-06
1.5954e-06
1.16716e-06
9.8482e-07
8.80396e-07
8.08348e-07
7.55414e-07
7.16574e-07
6.88625e-07
6.69358e-07
6.57307e-07
6.51506e-07
6.51491e-07
6.57261e-07
6.69282e-07
6.88522e-07
7.16438e-07
7.55247e-07
8.08169e-07
8.80228e-07
9.84711e-07
1.16719e-06
1.59565e-06
2.85172e-06
6.51427e-06
1.60813e-05
5.74815e-05
4.45042e-05
1.14967e-05
4.10172e-06
1.70977e-06
9.72087e-07
7.13687e-07
6.09187e-07
5.57462e-07
5.24853e-07
5.00607e-07
4.83078e-07
4.70664e-07
4.62134e-07
4.5695e-07
4.54518e-07
4.54508e-07
4.5692e-07
4.62088e-07
4.70605e-07
4.83013e-07
5.00558e-07
5.24816e-07
5.57463e-07
6.09256e-07
7.13851e-07
9.72328e-07
1.70989e-06
4.10055e-06
1.14927e-05
4.45013e-05
3.64384e-05
8.71859e-06
2.82562e-06
1.21238e-06
7.31321e-07
5.55318e-07
4.77429e-07
4.41108e-07
4.21339e-07
4.08598e-07
3.99756e-07
3.93566e-07
3.89344e-07
3.86739e-07
3.85503e-07
3.85497e-07
3.86723e-07
3.89321e-07
3.9354e-07
3.99735e-07
4.08594e-07
4.21361e-07
4.41171e-07
4.77535e-07
5.55467e-07
7.31482e-07
1.21242e-06
2.82485e-06
8.71642e-06
3.64388e-05
3.08856e-05
6.97733e-06
2.12782e-06
9.56464e-07
6.13258e-07
4.80091e-07
4.21733e-07
3.93507e-07
3.78689e-07
3.70108e-07
3.64696e-07
3.61131e-07
3.58789e-07
3.57363e-07
3.56688e-07
3.56685e-07
3.57357e-07
3.58782e-07
3.61127e-07
3.647e-07
3.70128e-07
3.78734e-07
3.93581e-07
4.21834e-07
4.80202e-07
6.13347e-07
9.56468e-07
2.12746e-06
6.97676e-06
3.0887e-05
2.6975e-05
5.84663e-06
1.72692e-06
8.11572e-07
5.45822e-07
4.4052e-07
3.93802e-07
3.70849e-07
3.58938e-07
3.52431e-07
3.48672e-07
3.46396e-07
3.44994e-07
3.44175e-07
3.43794e-07
3.43794e-07
3.44174e-07
3.44996e-07
3.46402e-07
3.48687e-07
3.5246e-07
3.58983e-07
3.70912e-07
3.93878e-07
4.40596e-07
5.45875e-07
8.1158e-07
1.72681e-06
5.84666e-06
2.69763e-05
2.42237e-05
5.08724e-06
1.48316e-06
7.24057e-07
5.03673e-07
4.16967e-07
3.78072e-07
3.58932e-07
3.49107e-07
3.43931e-07
3.41128e-07
3.39563e-07
3.38673e-07
3.38182e-07
3.37962e-07
3.37962e-07
3.38184e-07
3.38677e-07
3.39573e-07
3.41145e-07
3.43957e-07
3.49143e-07
3.58977e-07
3.78122e-07
4.17012e-07
5.03704e-07
7.24073e-07
1.4832e-06
5.08759e-06
2.42252e-05
2.21801e-05
4.55801e-06
1.32585e-06
6.67496e-07
4.74489e-07
4.01504e-07
3.68406e-07
3.52163e-07
3.43936e-07
3.39722e-07
3.37547e-07
3.36412e-07
3.35813e-07
3.35504e-07
3.35371e-07
3.35372e-07
3.35506e-07
3.35818e-07
3.36421e-07
3.37561e-07
3.39741e-07
3.4396e-07
3.52192e-07
3.68434e-07
4.01528e-07
4.74507e-07
6.67519e-07
1.32597e-06
4.55858e-06
2.21817e-05
2.06562e-05
4.18176e-06
1.21989e-06
6.2958e-07
4.56606e-07
3.91437e-07
3.6224e-07
3.48108e-07
3.41081e-07
3.37577e-07
3.35836e-07
3.34974e-07
3.34546e-07
3.34338e-07
3.34253e-07
3.34254e-07
3.3434e-07
3.3455e-07
3.3498e-07
3.35846e-07
3.37589e-07
3.41095e-07
3.48122e-07
3.62253e-07
3.91446e-07
4.56616e-07
6.29608e-07
1.22006e-06
4.18247e-06
2.06579e-05
1.9538e-05
3.91506e-06
1.14719e-06
6.03445e-07
4.44604e-07
3.84767e-07
3.58234e-07
3.45597e-07
3.3944e-07
3.36446e-07
3.35005e-07
3.34318e-07
3.33991e-07
3.3384e-07
3.33779e-07
3.3378e-07
3.33841e-07
3.33994e-07
3.34321e-07
3.3501e-07
3.36451e-07
3.39445e-07
3.456e-07
3.58236e-07
3.84768e-07
4.44609e-07
6.03479e-07
1.14739e-06
3.91586e-06
1.95398e-05
1.87517e-05
3.73197e-06
1.09815e-06
5.85595e-07
4.36478e-07
3.80335e-07
3.55635e-07
3.44031e-07
3.38477e-07
3.35833e-07
3.34591e-07
3.34015e-07
3.33748e-07
3.33627e-07
3.3358e-07
3.3358e-07
3.33627e-07
3.33749e-07
3.34015e-07
3.34592e-07
3.35833e-07
3.38476e-07
3.44027e-07
3.55629e-07
3.80329e-07
4.36481e-07
5.85638e-07
1.09836e-06
3.73283e-06
1.87537e-05
1.82502e-05
3.61704e-06
1.0677e-06
5.74309e-07
4.31361e-07
3.77581e-07
3.54053e-07
3.43106e-07
3.37934e-07
3.35508e-07
3.34387e-07
3.33875e-07
3.33642e-07
3.33537e-07
3.33496e-07
3.33495e-07
3.33536e-07
3.33641e-07
3.33874e-07
3.34384e-07
3.35503e-07
3.37926e-07
3.43096e-07
3.54041e-07
3.7757e-07
4.31361e-07
5.74353e-07
1.06792e-06
3.61797e-06
1.82523e-05
1.80055e-05
3.56141e-06
1.05305e-06
5.68867e-07
4.28889e-07
3.76261e-07
3.53306e-07
3.42678e-07
3.3769e-07
3.35368e-07
3.34305e-07
3.33822e-07
3.33603e-07
3.33505e-07
3.33466e-07
3.33466e-07
3.33504e-07
3.33601e-07
3.33819e-07
3.34299e-07
3.3536e-07
3.37678e-07
3.42663e-07
3.53288e-07
3.76245e-07
4.28883e-07
5.68908e-07
1.05328e-06
3.56239e-06
1.80077e-05
1.80046e-05
3.56118e-06
1.05302e-06
5.68877e-07
4.28906e-07
3.76278e-07
3.5332e-07
3.42689e-07
3.37699e-07
3.35376e-07
3.34311e-07
3.33828e-07
3.33609e-07
3.33511e-07
3.33472e-07
3.33472e-07
3.33509e-07
3.33606e-07
3.33823e-07
3.34304e-07
3.35366e-07
3.37684e-07
3.4267e-07
3.53298e-07
3.76256e-07
4.28894e-07
5.68912e-07
1.05325e-06
3.56219e-06
1.8007e-05
1.82476e-05
3.61633e-06
1.06762e-06
5.74337e-07
4.31413e-07
3.77631e-07
3.54095e-07
3.43139e-07
3.37961e-07
3.35531e-07
3.34407e-07
3.33894e-07
3.3366e-07
3.33554e-07
3.33513e-07
3.33512e-07
3.33552e-07
3.33656e-07
3.33888e-07
3.34399e-07
3.35518e-07
3.37944e-07
3.43117e-07
3.54068e-07
3.77603e-07
4.31395e-07
5.74365e-07
1.06784e-06
3.61735e-06
1.82502e-05
1.87472e-05
3.73075e-06
1.09801e-06
5.85641e-07
4.36564e-07
3.80415e-07
3.55702e-07
3.44084e-07
3.3852e-07
3.3587e-07
3.34624e-07
3.34045e-07
3.33778e-07
3.33657e-07
3.33609e-07
3.33608e-07
3.33655e-07
3.33774e-07
3.34039e-07
3.34614e-07
3.35856e-07
3.38502e-07
3.44059e-07
3.55671e-07
3.80381e-07
4.36537e-07
5.8566e-07
1.09822e-06
3.73178e-06
1.87502e-05
1.95315e-05
3.9133e-06
1.14698e-06
6.03505e-07
4.44721e-07
3.84874e-07
3.5832e-07
3.45665e-07
3.39495e-07
3.36493e-07
3.35049e-07
3.3436e-07
3.34034e-07
3.33883e-07
3.33823e-07
3.33822e-07
3.33881e-07
3.3403e-07
3.34354e-07
3.35039e-07
3.36479e-07
3.39476e-07
3.45639e-07
3.58287e-07
3.84835e-07
4.44685e-07
6.0351e-07
1.14717e-06
3.91435e-06
1.95347e-05
2.06475e-05
4.1794e-06
1.21957e-06
6.29646e-07
4.56742e-07
3.91557e-07
3.62334e-07
3.48181e-07
3.41142e-07
3.37631e-07
3.35889e-07
3.35028e-07
3.34602e-07
3.34396e-07
3.34312e-07
3.34311e-07
3.34394e-07
3.34598e-07
3.35021e-07
3.35879e-07
3.37617e-07
3.41122e-07
3.48156e-07
3.62301e-07
3.91516e-07
4.56703e-07
6.29646e-07
1.21977e-06
4.18048e-06
2.06511e-05
2.21689e-05
4.55499e-06
1.32539e-06
6.67551e-07
4.74618e-07
4.01614e-07
3.6849e-07
3.52229e-07
3.43992e-07
3.39777e-07
3.37607e-07
3.36477e-07
3.35884e-07
3.35579e-07
3.35448e-07
3.35447e-07
3.35576e-07
3.35878e-07
3.3647e-07
3.37596e-07
3.39763e-07
3.43974e-07
3.52204e-07
3.68459e-07
4.01577e-07
4.74582e-07
6.67552e-07
1.3256e-06
4.55611e-06
2.21728e-05
2.42095e-05
5.08343e-06
1.48259e-06
7.24053e-07
5.03732e-07
4.17029e-07
3.78119e-07
3.58971e-07
3.49147e-07
3.43981e-07
3.41191e-07
3.39638e-07
3.38759e-07
3.38275e-07
3.38059e-07
3.38057e-07
3.38271e-07
3.38752e-07
3.39629e-07
3.41179e-07
3.43966e-07
3.49129e-07
3.58948e-07
3.78092e-07
4.17e-07
5.03713e-07
7.24065e-07
1.48279e-06
5.0846e-06
2.42137e-05
2.69574e-05
5.84184e-06
1.72576e-06
8.11396e-07
5.45781e-07
4.40498e-07
3.93781e-07
3.7084e-07
3.5895e-07
3.52469e-07
3.48734e-07
3.46478e-07
3.45094e-07
3.44287e-07
3.43912e-07
3.43909e-07
3.4428e-07
3.45084e-07
3.46465e-07
3.48718e-07
3.5245e-07
3.58929e-07
3.70817e-07
3.93756e-07
4.40475e-07
5.45775e-07
8.11438e-07
1.72608e-06
5.84308e-06
2.6962e-05
3.08702e-05
6.97099e-06
2.12562e-06
9.55955e-07
6.13056e-07
4.79923e-07
4.21605e-07
3.93425e-07
3.78656e-07
3.70123e-07
3.64749e-07
3.61213e-07
3.58895e-07
3.57486e-07
3.5682e-07
3.56816e-07
3.57476e-07
3.58878e-07
3.61192e-07
3.64725e-07
3.70097e-07
3.78629e-07
3.93396e-07
4.21578e-07
4.79907e-07
6.13058e-07
9.56034e-07
2.12607e-06
6.97229e-06
3.08735e-05
3.64174e-05
8.70725e-06
2.82172e-06
1.21127e-06
7.30783e-07
5.54948e-07
4.77154e-07
4.40924e-07
4.2124e-07
4.08576e-07
3.99777e-07
3.9362e-07
3.89429e-07
3.86851e-07
3.85629e-07
3.85623e-07
3.86834e-07
3.89403e-07
3.93587e-07
3.99739e-07
4.08536e-07
4.21199e-07
4.40881e-07
4.77117e-07
5.54918e-07
7.30773e-07
1.21136e-06
2.8223e-06
8.70905e-06
3.6421e-05
4.44686e-05
1.14833e-05
4.09564e-06
1.70696e-06
9.7089e-07
7.12992e-07
6.08737e-07
5.57121e-07
5.2464e-07
5.00524e-07
4.82989e-07
4.70607e-07
4.62111e-07
4.56983e-07
4.54571e-07
4.54562e-07
4.56957e-07
4.62072e-07
4.70557e-07
4.82932e-07
5.00467e-07
5.24584e-07
5.57059e-07
6.08667e-07
7.12909e-07
9.70816e-07
1.70696e-06
4.09623e-06
1.14851e-05
4.44738e-05
5.74448e-05
1.60744e-05
6.50711e-06
2.84679e-06
1.59249e-06
1.1656e-06
9.83669e-07
8.79546e-07
8.0774e-07
7.54966e-07
7.16235e-07
6.88346e-07
6.69092e-07
6.57046e-07
6.51256e-07
6.51244e-07
6.57013e-07
6.69041e-07
6.88278e-07
7.16154e-07
7.54876e-07
8.0765e-07
8.79445e-07
9.83533e-07
1.1654e-06
1.59214e-06
2.84655e-06
6.5077e-06
1.60763e-05
5.74507e-05
8.34682e-05
2.20039e-05
1.1295e-05
5.82799e-06
3.74536e-06
2.88238e-06
2.40593e-06
2.08394e-06
1.85062e-06
1.67878e-06
1.5544e-06
1.46583e-06
1.40531e-06
1.36775e-06
1.34983e-06
1.34981e-06
1.36768e-06
1.40524e-06
1.46574e-06
1.55429e-06
1.67863e-06
1.85048e-06
2.08378e-06
2.4057e-06
2.88196e-06
3.74473e-06
5.82769e-06
1.12961e-05
2.2006e-05
8.34753e-05
0.000106238
3.04809e-05
2.01883e-05
1.42313e-05
1.14296e-05
9.60782e-06
8.26945e-06
7.27745e-06
6.51426e-06
5.93137e-06
5.49926e-06
5.18934e-06
4.97569e-06
4.84126e-06
4.77631e-06
4.77632e-06
4.84129e-06
4.97575e-06
5.18944e-06
5.49936e-06
5.93148e-06
6.51449e-06
7.27778e-06
8.26983e-06
9.60813e-06
1.14298e-05
1.42322e-05
2.01917e-05
3.04863e-05
0.000106254
0.00111504
0.000167801
8.8639e-05
5.87045e-05
4.55808e-05
3.78944e-05
3.27687e-05
2.91175e-05
2.64176e-05
2.44159e-05
2.29666e-05
2.19328e-05
2.12092e-05
2.07482e-05
2.05237e-05
2.05239e-05
2.07487e-05
2.12101e-05
2.19341e-05
2.29682e-05
2.4417e-05
2.64189e-05
2.91191e-05
3.27712e-05
3.78979e-05
4.5586e-05
5.87127e-05
8.86538e-05
0.000167828
0.00111521
0.000953777
0.000141068
7.59568e-05
5.10998e-05
4.01346e-05
3.36165e-05
2.91955e-05
2.60755e-05
2.38121e-05
2.21323e-05
2.0863e-05
1.99238e-05
1.92648e-05
1.8846e-05
1.86425e-05
1.86426e-05
1.88463e-05
1.92653e-05
1.99245e-05
2.08639e-05
2.21337e-05
2.38138e-05
2.60775e-05
2.91979e-05
3.36202e-05
4.01406e-05
5.11094e-05
7.59742e-05
0.000141104
0.0009541
9.32783e-05
3.41034e-05
2.2233e-05
1.67407e-05
1.41197e-05
1.25444e-05
1.13455e-05
1.03207e-05
9.4326e-06
8.68602e-06
8.08373e-06
7.62147e-06
7.28947e-06
7.0761e-06
6.97199e-06
6.97215e-06
7.07659e-06
7.29028e-06
7.62258e-06
8.08517e-06
8.68777e-06
9.43455e-06
1.03229e-05
1.13481e-05
1.25479e-05
1.41235e-05
1.67447e-05
2.22375e-05
3.4118e-05
9.33209e-05
7.32213e-05
2.24642e-05
1.35156e-05
8.50821e-06
6.05887e-06
4.78274e-06
4.01279e-06
3.47325e-06
3.06215e-06
2.74256e-06
2.49743e-06
2.31629e-06
2.18979e-06
2.11001e-06
2.07154e-06
2.07157e-06
2.11012e-06
2.18996e-06
2.31646e-06
2.49765e-06
2.74297e-06
3.0627e-06
3.47399e-06
4.01347e-06
4.7831e-06
6.05863e-06
8.50764e-06
1.35166e-05
2.24704e-05
7.32353e-05
5.04363e-05
1.79681e-05
9.31381e-06
4.90468e-06
2.79661e-06
1.87493e-06
1.46403e-06
1.24238e-06
1.09931e-06
9.95254e-07
9.17325e-07
8.60469e-07
8.2111e-07
7.96398e-07
7.84497e-07
7.84493e-07
7.96385e-07
8.21087e-07
8.60436e-07
9.17284e-07
9.95205e-07
1.09925e-06
1.24232e-06
1.46384e-06
1.87441e-06
2.79556e-06
4.90391e-06
9.31504e-06
1.79734e-05
5.04429e-05
3.89038e-05
1.38275e-05
6.5867e-06
3.0178e-06
1.50123e-06
9.36548e-07
7.16766e-07
6.16143e-07
5.60694e-07
5.23436e-07
4.96433e-07
4.76911e-07
4.63335e-07
4.54332e-07
4.49813e-07
4.4981e-07
4.54323e-07
4.63311e-07
4.76879e-07
4.96393e-07
5.23386e-07
5.60624e-07
6.16041e-07
7.16602e-07
9.36282e-07
1.50081e-06
3.01748e-06
6.58771e-06
1.38305e-05
3.89048e-05
3.19441e-05
1.12972e-05
4.70605e-06
1.96125e-06
9.69791e-07
6.19316e-07
4.83601e-07
4.20681e-07
3.88e-07
3.68452e-07
3.55334e-07
3.46193e-07
3.40115e-07
3.3635e-07
3.34515e-07
3.3451e-07
3.36337e-07
3.40092e-07
3.46167e-07
3.55299e-07
3.68404e-07
3.8793e-07
4.20586e-07
4.83508e-07
6.19206e-07
9.69714e-07
1.96136e-06
4.70681e-06
1.12986e-05
3.19423e-05
2.73411e-05
9.46904e-06
3.48137e-06
1.38254e-06
7.18208e-07
4.86426e-07
3.88077e-07
3.43305e-07
3.21649e-07
3.09761e-07
3.02466e-07
2.97683e-07
2.94561e-07
2.92665e-07
2.9176e-07
2.91755e-07
2.92651e-07
2.94539e-07
2.97654e-07
3.02429e-07
3.09713e-07
3.21589e-07
3.43236e-07
3.8801e-07
4.864e-07
7.18244e-07
1.38275e-06
3.48186e-06
9.4693e-06
2.73385e-05
2.40878e-05
8.07903e-06
2.7089e-06
1.06771e-06
5.85718e-07
4.15224e-07
3.42472e-07
3.09557e-07
2.93312e-07
2.84718e-07
2.79831e-07
2.7688e-07
2.75063e-07
2.74e-07
2.73504e-07
2.735e-07
2.73989e-07
2.75045e-07
2.76856e-07
2.79801e-07
2.84682e-07
2.93272e-07
3.09518e-07
3.42444e-07
4.15221e-07
5.85771e-07
1.06786e-06
2.70916e-06
8.07893e-06
2.40851e-05
2.16717e-05
7.0037e-06
2.21447e-06
8.83047e-07
5.10114e-07
3.74179e-07
3.18335e-07
2.92552e-07
2.79696e-07
2.7299e-07
2.69355e-07
2.67312e-07
2.66142e-07
2.65495e-07
2.65204e-07
2.65201e-07
2.65487e-07
2.66129e-07
2.67295e-07
2.69335e-07
2.72969e-07
2.79676e-07
2.92539e-07
3.18336e-07
3.74204e-07
5.10178e-07
8.83175e-07
2.21466e-06
7.00347e-06
2.16689e-05
1.98937e-05
6.18977e-06
1.88707e-06
7.68145e-07
4.608e-07
3.49206e-07
3.04158e-07
2.83132e-07
2.72612e-07
2.67176e-07
2.64317e-07
2.62793e-07
2.61977e-07
2.61553e-07
2.61371e-07
2.61369e-07
2.61548e-07
2.61969e-07
2.62783e-07
2.64307e-07
2.67167e-07
2.72609e-07
2.83139e-07
3.04181e-07
3.49255e-07
4.60881e-07
7.68272e-07
1.88723e-06
6.18943e-06
1.98907e-05
1.85849e-05
5.58876e-06
1.666e-06
6.94334e-07
4.28408e-07
3.33829e-07
2.95462e-07
2.77605e-07
2.68719e-07
2.6418e-07
2.61846e-07
2.60649e-07
2.6004e-07
2.59741e-07
2.59618e-07
2.59617e-07
2.59738e-07
2.60036e-07
2.60645e-07
2.61844e-07
2.64181e-07
2.68728e-07
2.77626e-07
2.955e-07
3.33892e-07
4.28496e-07
6.94461e-07
1.66615e-06
5.58834e-06
1.85817e-05
1.76352e-05
5.15837e-06
1.51799e-06
6.46061e-07
4.0726e-07
3.23945e-07
2.89997e-07
2.74261e-07
2.66501e-07
2.6259e-07
2.60617e-07
2.59633e-07
2.5915e-07
2.58922e-07
2.58831e-07
2.58831e-07
2.58921e-07
2.59149e-07
2.59634e-07
2.60621e-07
2.62599e-07
2.66519e-07
2.74291e-07
2.90045e-07
3.24015e-07
4.07352e-07
6.46188e-07
1.51813e-06
5.15791e-06
1.76319e-05
1.69736e-05
4.86456e-06
1.42226e-06
6.15147e-07
3.93665e-07
3.17616e-07
2.86563e-07
2.72227e-07
2.65221e-07
2.61732e-07
2.59999e-07
2.59151e-07
2.58744e-07
2.58557e-07
2.58484e-07
2.58484e-07
2.58557e-07
2.58746e-07
2.59155e-07
2.60008e-07
2.61746e-07
2.65244e-07
2.72264e-07
2.86617e-07
3.17692e-07
3.93759e-07
6.15269e-07
1.42241e-06
4.86411e-06
1.69703e-05
1.65554e-05
4.68245e-06
1.36435e-06
5.96802e-07
3.85535e-07
3.13825e-07
2.84529e-07
2.71051e-07
2.64507e-07
2.61278e-07
2.59693e-07
2.58925e-07
2.58561e-07
2.58395e-07
2.58331e-07
2.58332e-07
2.58397e-07
2.58565e-07
2.58932e-07
2.59704e-07
2.61296e-07
2.64534e-07
2.71091e-07
2.84588e-07
3.13905e-07
3.85633e-07
5.96932e-07
1.36454e-06
4.68207e-06
1.65521e-05
1.6354e-05
4.59776e-06
1.33742e-06
5.8823e-07
3.81719e-07
3.12037e-07
2.83574e-07
2.70503e-07
2.64181e-07
2.61077e-07
2.59561e-07
2.58831e-07
2.58487e-07
2.5833e-07
2.5827e-07
2.58271e-07
2.58333e-07
2.58491e-07
2.58839e-07
2.59574e-07
2.61097e-07
2.64211e-07
2.70547e-07
2.83635e-07
3.1212e-07
3.81823e-07
5.88374e-07
1.33767e-06
4.59757e-06
1.63508e-05
1.63546e-05
4.59778e-06
1.33739e-06
5.88211e-07
3.81701e-07
3.12021e-07
2.8356e-07
2.70492e-07
2.64171e-07
2.61068e-07
2.59552e-07
2.58822e-07
2.58478e-07
2.58321e-07
2.58261e-07
2.58262e-07
2.58324e-07
2.58483e-07
2.58831e-07
2.59565e-07
2.61088e-07
2.64201e-07
2.70536e-07
2.83623e-07
3.12107e-07
3.81808e-07
5.8836e-07
1.33765e-06
4.59764e-06
1.63513e-05
1.65573e-05
4.68261e-06
1.36426e-06
5.96746e-07
3.8548e-07
3.13777e-07
2.84489e-07
2.71016e-07
2.64477e-07
2.61251e-07
2.59666e-07
2.58899e-07
2.58534e-07
2.58368e-07
2.58304e-07
2.58305e-07
2.58371e-07
2.58539e-07
2.58907e-07
2.59679e-07
2.6127e-07
2.64507e-07
2.7106e-07
2.84552e-07
3.13863e-07
3.85588e-07
5.96892e-07
1.36451e-06
4.68243e-06
1.65538e-05
1.69769e-05
4.86486e-06
1.42209e-06
6.15047e-07
3.93568e-07
3.17533e-07
2.86495e-07
2.7217e-07
2.6517e-07
2.61685e-07
2.59954e-07
2.59106e-07
2.58698e-07
2.5851e-07
2.58436e-07
2.58437e-07
2.58511e-07
2.58701e-07
2.59112e-07
2.59965e-07
2.61703e-07
2.65199e-07
2.72213e-07
2.86557e-07
3.1762e-07
3.93679e-07
6.15195e-07
1.42235e-06
4.86474e-06
1.69733e-05
1.76399e-05
5.1588e-06
1.51774e-06
6.45905e-07
4.07114e-07
3.23824e-07
2.89901e-07
2.74181e-07
2.66431e-07
2.62524e-07
2.60552e-07
2.59567e-07
2.59082e-07
2.58852e-07
2.58761e-07
2.58761e-07
2.58853e-07
2.59083e-07
2.59571e-07
2.60561e-07
2.62539e-07
2.66456e-07
2.74221e-07
2.8996e-07
3.23911e-07
4.07229e-07
6.46066e-07
1.51803e-06
5.15882e-06
1.76363e-05
1.85911e-05
5.58934e-06
1.66569e-06
6.94098e-07
4.28203e-07
3.33671e-07
2.9534e-07
2.77505e-07
2.6863e-07
2.64094e-07
2.61759e-07
2.60559e-07
2.59946e-07
2.59644e-07
2.59519e-07
2.59519e-07
2.59642e-07
2.59945e-07
2.60559e-07
2.61763e-07
2.64104e-07
2.6865e-07
2.77539e-07
2.95395e-07
3.33755e-07
4.28322e-07
6.94271e-07
1.66606e-06
5.58951e-06
1.85876e-05
1.99015e-05
6.19045e-06
1.88659e-06
7.67796e-07
4.6054e-07
3.4902e-07
3.04017e-07
2.83014e-07
2.72503e-07
2.67067e-07
2.64204e-07
2.62674e-07
2.61851e-07
2.61422e-07
2.61237e-07
2.61235e-07
2.61418e-07
2.61845e-07
2.62669e-07
2.64202e-07
2.67072e-07
2.72518e-07
2.83044e-07
3.04067e-07
3.49097e-07
4.60656e-07
7.67975e-07
1.88697e-06
6.19076e-06
1.98983e-05
2.16812e-05
7.00452e-06
2.21367e-06
8.82564e-07
5.09872e-07
3.73992e-07
3.18185e-07
2.9242e-07
2.79566e-07
2.72854e-07
2.69209e-07
2.67155e-07
2.65975e-07
2.6532e-07
2.65025e-07
2.65022e-07