/*--------------------------------*- C++ -*----------------------------------*\
| =========                 |                                                 |
| \\      /  F ield         | OpenFOAM: The Open Source CFD Toolbox           |
|  \\    /   O peration     | Version:  2312                                  |
|   \\  /    A nd           | Website:  www.openfoam.com                      |
|    \\/     M anipulation  |                                                 |
\*---------------------------------------------------------------------------*/
FoamFile
{
    version     2.0;
    format      ascii;
    arch        "LSB;label=32;scalar=64";
    class       volScalarField;
    location    "450";
    object      k;
}
// * * * * * * * * * * * * * * * * * * * * * * * * * * * * * * * * * * * * * //

dimensions      [0 2 -2 0 0 0 0];

internalField   nonuniform List<scalar> 
27000
(
0.000259174
0.000129513
0.000107435
9.55966e-05
9.00531e-05
8.66031e-05
8.39807e-05
8.16914e-05
7.97872e-05
7.8238e-05
7.69489e-05
7.59148e-05
7.51495e-05
7.46455e-05
7.43954e-05
7.43952e-05
7.46449e-05
7.51485e-05
7.59134e-05
7.69472e-05
7.82365e-05
7.97856e-05
8.16898e-05
8.39792e-05
8.6602e-05
9.00526e-05
9.55974e-05
0.000107439
0.00012952
0.000259194
9.82739e-05
2.15523e-05
2.82841e-05
3.06662e-05
3.24291e-05
3.35887e-05
3.4322e-05
3.47537e-05
3.49834e-05
3.51161e-05
3.51998e-05
3.52539e-05
3.52889e-05
3.53101e-05
3.53202e-05
3.53203e-05
3.53103e-05
3.52893e-05
3.52546e-05
3.52008e-05
3.51175e-05
3.49851e-05
3.47558e-05
3.43245e-05
3.35916e-05
3.24324e-05
3.06695e-05
2.8288e-05
2.15528e-05
9.82839e-05
0.000101402
3.49898e-05
2.88274e-05
2.72563e-05
2.79585e-05
2.88805e-05
2.96645e-05
3.03171e-05
3.08211e-05
3.12045e-05
3.14968e-05
3.17162e-05
3.18734e-05
3.1975e-05
3.20249e-05
3.20251e-05
3.19756e-05
3.18745e-05
3.17178e-05
3.14987e-05
3.12066e-05
3.08233e-05
3.03193e-05
2.96664e-05
2.88816e-05
2.79593e-05
2.72571e-05
2.88302e-05
3.49954e-05
0.000101409
9.48929e-05
3.5285e-05
2.87094e-05
2.84584e-05
2.93118e-05
3.01423e-05
3.08103e-05
3.13392e-05
3.1752e-05
3.20673e-05
3.23058e-05
3.24832e-05
3.26096e-05
3.2691e-05
3.2731e-05
3.27313e-05
3.26917e-05
3.26107e-05
3.24846e-05
3.23074e-05
3.20689e-05
3.17533e-05
3.13401e-05
3.08106e-05
3.01418e-05
2.93108e-05
2.84577e-05
2.87105e-05
3.52899e-05
9.48999e-05
9.0304e-05
3.42331e-05
2.89996e-05
2.9632e-05
3.06155e-05
3.1378e-05
3.19446e-05
3.23686e-05
3.26874e-05
3.29246e-05
3.30999e-05
3.32276e-05
3.33169e-05
3.33738e-05
3.34016e-05
3.34018e-05
3.33744e-05
3.33177e-05
3.32286e-05
3.31009e-05
3.29254e-05
3.26878e-05
3.23684e-05
3.19437e-05
3.13765e-05
3.06137e-05
2.96307e-05
2.89999e-05
3.42367e-05
9.03097e-05
8.65808e-05
3.39336e-05
2.9443e-05
3.04497e-05
3.14855e-05
3.22118e-05
3.27136e-05
3.30648e-05
3.33131e-05
3.34887e-05
3.36125e-05
3.36987e-05
3.37569e-05
3.37931e-05
3.38105e-05
3.38106e-05
3.37934e-05
3.37574e-05
3.36992e-05
3.36129e-05
3.34888e-05
3.33127e-05
3.30639e-05
3.27121e-05
3.22099e-05
3.14836e-05
3.04483e-05
2.9443e-05
3.39362e-05
8.65858e-05
8.34063e-05
3.39722e-05
3.01097e-05
3.11219e-05
3.21014e-05
3.27712e-05
3.32156e-05
3.35085e-05
3.37009e-05
3.38268e-05
3.39088e-05
3.39616e-05
3.3995e-05
3.40146e-05
3.40238e-05
3.40238e-05
3.40148e-05
3.39951e-05
3.39617e-05
3.39087e-05
3.38264e-05
3.37001e-05
3.35072e-05
3.3214e-05
3.27694e-05
3.20997e-05
3.11208e-05
3.01096e-05
3.39742e-05
8.34109e-05
8.06302e-05
3.41106e-05
3.07717e-05
3.16954e-05
3.25712e-05
3.31624e-05
3.35438e-05
3.37822e-05
3.39268e-05
3.4012e-05
3.40607e-05
3.40878e-05
3.41024e-05
3.41099e-05
3.41131e-05
3.41131e-05
3.41099e-05
3.41024e-05
3.40876e-05
3.40603e-05
3.40113e-05
3.39258e-05
3.37809e-05
3.35422e-05
3.31608e-05
3.25698e-05
3.16945e-05
3.07715e-05
3.41121e-05
8.06347e-05
7.81264e-05
3.42495e-05
3.13166e-05
3.2154e-05
3.29295e-05
3.34412e-05
3.37593e-05
3.39465e-05
3.40496e-05
3.41017e-05
3.41251e-05
3.41335e-05
3.41352e-05
3.41345e-05
3.41338e-05
3.41337e-05
3.41344e-05
3.4135e-05
3.41332e-05
3.41245e-05
3.4101e-05
3.40486e-05
3.39453e-05
3.3758e-05
3.34399e-05
3.29284e-05
3.21532e-05
3.13163e-05
3.42505e-05
7.81305e-05
7.60069e-05
3.4369e-05
3.17467e-05
3.25081e-05
3.31962e-05
3.36387e-05
3.39003e-05
3.40424e-05
3.41108e-05
3.41372e-05
3.41422e-05
3.41381e-05
3.41317e-05
3.41264e-05
3.41235e-05
3.41234e-05
3.41262e-05
3.41315e-05
3.41377e-05
3.41416e-05
3.41365e-05
3.41099e-05
3.40414e-05
3.38992e-05
3.36377e-05
3.31953e-05
3.25074e-05
3.17461e-05
3.43696e-05
7.60106e-05
7.42674e-05
3.44665e-05
3.20797e-05
3.27795e-05
3.33957e-05
3.37784e-05
3.3992e-05
3.4097e-05
3.41379e-05
3.41453e-05
3.41379e-05
3.41262e-05
3.41154e-05
3.41078e-05
3.41039e-05
3.41039e-05
3.41077e-05
3.41152e-05
3.41258e-05
3.41373e-05
3.41446e-05
3.41372e-05
3.40961e-05
3.39912e-05
3.37776e-05
3.33949e-05
3.27788e-05
3.20791e-05
3.44667e-05
7.42706e-05
7.28941e-05
3.45417e-05
3.23294e-05
3.29815e-05
3.35414e-05
3.38762e-05
3.40513e-05
3.41272e-05
3.41478e-05
3.41419e-05
3.41266e-05
3.41108e-05
3.40982e-05
3.40898e-05
3.40858e-05
3.40857e-05
3.40897e-05
3.40979e-05
3.41105e-05
3.41262e-05
3.41414e-05
3.41472e-05
3.41266e-05
3.40507e-05
3.38756e-05
3.35407e-05
3.29809e-05
3.23286e-05
3.45415e-05
7.28967e-05
7.18757e-05
3.45959e-05
3.25067e-05
3.31243e-05
3.36428e-05
3.39421e-05
3.40887e-05
3.41436e-05
3.41499e-05
3.41354e-05
3.41156e-05
3.40978e-05
3.40847e-05
3.40765e-05
3.40726e-05
3.40726e-05
3.40764e-05
3.40846e-05
3.40976e-05
3.41153e-05
3.41351e-05
3.41495e-05
3.41432e-05
3.40883e-05
3.39416e-05
3.36423e-05
3.31237e-05
3.25059e-05
3.45954e-05
7.18776e-05
7.12032e-05
3.4631e-05
3.26202e-05
3.32154e-05
3.37066e-05
3.39825e-05
3.41106e-05
3.41518e-05
3.41493e-05
3.41298e-05
3.41076e-05
3.40891e-05
3.40762e-05
3.40683e-05
3.40647e-05
3.40646e-05
3.40682e-05
3.40761e-05
3.4089e-05
3.41075e-05
3.41297e-05
3.41491e-05
3.41516e-05
3.41104e-05
3.39823e-05
3.37063e-05
3.32148e-05
3.26194e-05
3.46302e-05
7.12043e-05
7.087e-05
3.46484e-05
3.26756e-05
3.32595e-05
3.37374e-05
3.40016e-05
3.41205e-05
3.41552e-05
3.41485e-05
3.41267e-05
3.41035e-05
3.40848e-05
3.4072e-05
3.40644e-05
3.40609e-05
3.40609e-05
3.40644e-05
3.4072e-05
3.40848e-05
3.41034e-05
3.41266e-05
3.41485e-05
3.41552e-05
3.41205e-05
3.40015e-05
3.37371e-05
3.32591e-05
3.26747e-05
3.46474e-05
7.08701e-05
7.08723e-05
3.46491e-05
3.26756e-05
3.32594e-05
3.37372e-05
3.40014e-05
3.41203e-05
3.4155e-05
3.41483e-05
3.41265e-05
3.41033e-05
3.40846e-05
3.40718e-05
3.40642e-05
3.40607e-05
3.40608e-05
3.40642e-05
3.40719e-05
3.40847e-05
3.41034e-05
3.41266e-05
3.41484e-05
3.41551e-05
3.41204e-05
3.40015e-05
3.37371e-05
3.32591e-05
3.26748e-05
3.46478e-05
7.08715e-05
7.12102e-05
3.4633e-05
3.26205e-05
3.3215e-05
3.37061e-05
3.3982e-05
3.411e-05
3.41513e-05
3.41488e-05
3.41293e-05
3.41071e-05
3.40886e-05
3.40756e-05
3.40677e-05
3.40641e-05
3.40641e-05
3.40678e-05
3.40757e-05
3.40888e-05
3.41073e-05
3.41296e-05
3.41491e-05
3.41516e-05
3.41103e-05
3.39821e-05
3.37061e-05
3.32148e-05
3.26197e-05
3.46315e-05
7.12082e-05
7.18872e-05
3.45993e-05
3.25072e-05
3.31239e-05
3.3642e-05
3.39413e-05
3.4088e-05
3.41429e-05
3.41492e-05
3.41348e-05
3.41149e-05
3.40971e-05
3.40839e-05
3.40757e-05
3.40718e-05
3.40719e-05
3.40758e-05
3.40841e-05
3.40973e-05
3.41151e-05
3.41351e-05
3.41495e-05
3.41432e-05
3.40883e-05
3.39416e-05
3.36422e-05
3.31237e-05
3.25065e-05
3.45976e-05
7.18841e-05
7.29099e-05
3.45465e-05
3.23302e-05
3.29811e-05
3.35406e-05
3.38755e-05
3.40507e-05
3.41266e-05
3.41472e-05
3.41413e-05
3.41259e-05
3.411e-05
3.40973e-05
3.40889e-05
3.40848e-05
3.40849e-05
3.4089e-05
3.40974e-05
3.41102e-05
3.41262e-05
3.41416e-05
3.41475e-05
3.4127e-05
3.4051e-05
3.38758e-05
3.35408e-05
3.2981e-05
3.23295e-05
3.45445e-05
7.29057e-05
7.42872e-05
3.44727e-05
3.20812e-05
3.27795e-05
3.33952e-05
3.3778e-05
3.39917e-05
3.40967e-05
3.41377e-05
3.41449e-05
3.41374e-05
3.41255e-05
3.41146e-05
3.41069e-05
3.4103e-05
3.4103e-05
3.4107e-05
3.41148e-05
3.41257e-05
3.41377e-05
3.41453e-05
3.4138e-05
3.40971e-05
3.3992e-05
3.37783e-05
3.33954e-05
3.27794e-05
3.20804e-05
3.44706e-05
7.42821e-05
7.60304e-05
3.43767e-05
3.1749e-05
3.25088e-05
3.31965e-05
3.3639e-05
3.39007e-05
3.40429e-05
3.41112e-05
3.41374e-05
3.41421e-05
3.41378e-05
3.41312e-05
3.41257e-05
3.41227e-05
3.41228e-05
3.41258e-05
3.41314e-05
3.4138e-05
3.41424e-05
3.41377e-05
3.41116e-05
3.40432e-05
3.3901e-05
3.36393e-05
3.31966e-05
3.25086e-05
3.17481e-05
3.43743e-05
7.60245e-05
7.81532e-05
3.42588e-05
3.13203e-05
3.21559e-05
3.2931e-05
3.34427e-05
3.37609e-05
3.39481e-05
3.40509e-05
3.41028e-05
3.41257e-05
3.41337e-05
3.41351e-05
3.41342e-05
3.41334e-05
3.41334e-05
3.41344e-05
3.41353e-05
3.41341e-05
3.4126e-05
3.41031e-05
3.40513e-05
3.39483e-05
3.37611e-05
3.34428e-05
3.2931e-05
3.21556e-05
3.13192e-05
3.42561e-05
7.81465e-05
8.06592e-05
3.41213e-05
3.07769e-05
3.16988e-05
3.25743e-05
3.31655e-05
3.35469e-05
3.37851e-05
3.39294e-05
3.40141e-05
3.40622e-05
3.40888e-05
3.4103e-05
3.41102e-05
3.41132e-05
3.41133e-05
3.41104e-05
3.41034e-05
3.40892e-05
3.40627e-05
3.40145e-05
3.39297e-05
3.37854e-05
3.3547e-05
3.31655e-05
3.25742e-05
3.16984e-05
3.07757e-05
3.41184e-05
8.06523e-05
8.34315e-05
3.3984e-05
3.01165e-05
3.11271e-05
3.21064e-05
3.27762e-05
3.32205e-05
3.3513e-05
3.37049e-05
3.38301e-05
3.39114e-05
3.39636e-05
3.39964e-05
3.40157e-05
3.40246e-05
3.40247e-05
3.4016e-05
3.39968e-05
3.39641e-05
3.39119e-05
3.38306e-05
3.37053e-05
3.35133e-05
3.32206e-05
3.27762e-05
3.21061e-05
3.11264e-05
3.01151e-05
3.39809e-05
8.34257e-05
8.66065e-05
3.39462e-05
2.94504e-05
3.04567e-05
3.14926e-05
3.22188e-05
3.27203e-05
3.3071e-05
3.33186e-05
3.34935e-05
3.36164e-05
3.37019e-05
3.37595e-05
3.37952e-05
3.38124e-05
3.38125e-05
3.37956e-05
3.37601e-05
3.37026e-05
3.36171e-05
3.34941e-05
3.33191e-05
3.30713e-05
3.27204e-05
3.22187e-05
3.14922e-05
3.04559e-05
2.94489e-05
3.39429e-05
8.66008e-05
9.03297e-05
3.42476e-05
2.90096e-05
2.96412e-05
3.06244e-05
3.13868e-05
3.19531e-05
3.23766e-05
3.26946e-05
3.2931e-05
3.31055e-05
3.32324e-05
3.3321e-05
3.33773e-05
3.34048e-05
3.34049e-05
3.33777e-05
3.33216e-05
3.32332e-05
3.31063e-05
3.29318e-05
3.26952e-05
3.2377e-05
3.19533e-05
3.13868e-05
3.0624e-05
2.96402e-05
2.90076e-05
3.42436e-05
9.03241e-05
9.49182e-05
3.53008e-05
2.87222e-05
2.84681e-05
2.93222e-05
3.01525e-05
3.08205e-05
3.13491e-05
3.17613e-05
3.20759e-05
3.23137e-05
3.24904e-05
3.26159e-05
3.26966e-05
3.27361e-05
3.27363e-05
3.2697e-05
3.26166e-05
3.24912e-05
3.23146e-05
3.20767e-05
3.17619e-05
3.13495e-05
3.08207e-05
3.01524e-05
2.93218e-05
2.84671e-05
2.87196e-05
3.52962e-05
9.49127e-05
0.000101422
3.5001e-05
2.88437e-05
2.72691e-05
2.79702e-05
2.88919e-05
2.96781e-05
3.03305e-05
3.08338e-05
3.12166e-05
3.15085e-05
3.17273e-05
3.18835e-05
3.19841e-05
3.20335e-05
3.20336e-05
3.19843e-05
3.18839e-05
3.17278e-05
3.1509e-05
3.1217e-05
3.08339e-05
3.03304e-05
2.96777e-05
2.88912e-05
2.79692e-05
2.72676e-05
2.88404e-05
3.49964e-05
0.000101416
9.82997e-05
2.1557e-05
2.82984e-05
3.06811e-05
3.24452e-05
3.36055e-05
3.43398e-05
3.47715e-05
3.50009e-05
3.51332e-05
3.52169e-05
3.52709e-05
3.53054e-05
3.53262e-05
3.5336e-05
3.53358e-05
3.53258e-05
3.53047e-05
3.52699e-05
3.52157e-05
3.51316e-05
3.49989e-05
3.47691e-05
3.43371e-05
3.36026e-05
3.24421e-05
3.06783e-05
2.82955e-05
2.1555e-05
9.82925e-05
0.000259216
0.000129532
0.000107454
9.5616e-05
9.00739e-05
8.66249e-05
8.40029e-05
8.17137e-05
7.98097e-05
7.82614e-05
7.69784e-05
7.59451e-05
7.51795e-05
7.46751e-05
7.44246e-05
7.44241e-05
7.46736e-05
7.5177e-05
7.59417e-05
7.69744e-05
7.82575e-05
7.98054e-05
8.17089e-05
8.39977e-05
8.66193e-05
9.00677e-05
9.56091e-05
0.000107446
0.000129523
0.0002592
0.000210008
0.000106526
9.25523e-05
8.50115e-05
8.25765e-05
8.13478e-05
8.04809e-05
7.95488e-05
7.86893e-05
7.79886e-05
7.75194e-05
7.72075e-05
7.69819e-05
7.68324e-05
7.67579e-05
7.67582e-05
7.68334e-05
7.69835e-05
7.72097e-05
7.7522e-05
7.79908e-05
7.86918e-05
7.95516e-05
8.04843e-05
8.13498e-05
8.25763e-05
8.5008e-05
9.25436e-05
0.000106512
0.000209968
7.77367e-05
2.33318e-05
4.08791e-05
4.17539e-05
4.30874e-05
4.34009e-05
4.31224e-05
4.27875e-05
4.23082e-05
4.18015e-05
4.13542e-05
4.10019e-05
4.0747e-05
4.05822e-05
4.05015e-05
4.05014e-05
4.05821e-05
4.07467e-05
4.10014e-05
4.13531e-05
4.17999e-05
4.23062e-05
4.27848e-05
4.31181e-05
4.33911e-05
4.3076e-05
4.17416e-05
4.08653e-05
2.33225e-05
7.77153e-05
8.97517e-05
4.98958e-05
4.07611e-05
3.29066e-05
3.01854e-05
2.95975e-05
2.94292e-05
2.91874e-05
2.89611e-05
2.87645e-05
2.86065e-05
2.84901e-05
2.84115e-05
2.83636e-05
2.8341e-05
2.83405e-05
2.83621e-05
2.84088e-05
2.84858e-05
2.86011e-05
2.87591e-05
2.89557e-05
2.91821e-05
2.94242e-05
2.95947e-05
3.01842e-05
3.29052e-05
4.07556e-05
4.98821e-05
8.9739e-05
8.59669e-05
4.89404e-05
3.60058e-05
2.85306e-05
2.52653e-05
2.4606e-05
2.47812e-05
2.50814e-05
2.53522e-05
2.55952e-05
2.58068e-05
2.59745e-05
2.60977e-05
2.6178e-05
2.62173e-05
2.62167e-05
2.61761e-05
2.60944e-05
2.597e-05
2.58017e-05
2.55903e-05
2.53484e-05
2.50789e-05
2.47807e-05
2.46081e-05
2.52688e-05
2.85323e-05
3.60017e-05
4.89251e-05
8.59578e-05
8.44692e-05
4.50413e-05
3.22365e-05
2.61294e-05
2.42761e-05
2.42342e-05
2.47017e-05
2.52095e-05
2.56399e-05
2.59908e-05
2.62712e-05
2.64858e-05
2.66404e-05
2.67396e-05
2.67879e-05
2.67874e-05
2.67383e-05
2.66382e-05
2.64831e-05
2.62684e-05
2.59886e-05
2.5639e-05
2.52104e-05
2.47051e-05
2.424e-05
2.42823e-05
2.61338e-05
3.22354e-05
4.503e-05
8.4466e-05
8.33206e-05
4.18798e-05
2.99746e-05
2.52003e-05
2.4456e-05
2.48703e-05
2.54779e-05
2.60288e-05
2.6477e-05
2.68282e-05
2.7098e-05
2.72997e-05
2.74429e-05
2.75344e-05
2.75787e-05
2.75785e-05
2.75336e-05
2.74418e-05
2.72985e-05
2.70971e-05
2.68281e-05
2.64781e-05
2.60316e-05
2.54826e-05
2.48764e-05
2.44623e-05
2.5204e-05
2.99734e-05
4.1872e-05
8.33215e-05
8.21398e-05
3.99113e-05
2.83418e-05
2.48998e-05
2.49101e-05
2.55734e-05
2.62433e-05
2.67963e-05
2.72266e-05
2.75521e-05
2.77937e-05
2.79688e-05
2.80901e-05
2.81664e-05
2.82031e-05
2.8203e-05
2.81661e-05
2.80897e-05
2.79685e-05
2.77938e-05
2.7553e-05
2.72286e-05
2.67995e-05
2.62475e-05
2.55783e-05
2.49145e-05
2.49021e-05
2.8341e-05
3.99098e-05
8.21425e-05
8.11373e-05
3.86774e-05
2.73743e-05
2.49213e-05
2.53637e-05
2.61631e-05
2.6857e-05
2.73972e-05
2.78004e-05
2.80936e-05
2.83026e-05
2.84483e-05
2.85458e-05
2.86055e-05
2.86338e-05
2.86338e-05
2.86054e-05
2.85458e-05
2.84485e-05
2.83033e-05
2.80949e-05
2.78024e-05
2.73999e-05
2.68602e-05
2.61663e-05
2.53662e-05
2.49225e-05
2.73742e-05
3.86777e-05
8.11402e-05
8.0478e-05
3.7846e-05
2.6904e-05
2.51743e-05
2.58064e-05
2.66438e-05
2.73303e-05
2.78447e-05
2.82145e-05
2.84729e-05
2.86489e-05
2.87657e-05
2.88404e-05
2.88843e-05
2.89047e-05
2.89047e-05
2.88844e-05
2.88406e-05
2.87662e-05
2.86497e-05
2.84741e-05
2.82161e-05
2.78466e-05
2.73324e-05
2.66456e-05
2.58076e-05
2.51749e-05
2.69044e-05
3.78473e-05
8.04816e-05
7.98966e-05
3.72648e-05
2.6687e-05
2.5467e-05
2.61973e-05
2.7031e-05
2.76904e-05
2.81699e-05
2.85032e-05
2.87264e-05
2.8871e-05
2.89615e-05
2.90158e-05
2.9046e-05
2.90595e-05
2.90595e-05
2.90462e-05
2.9016e-05
2.89619e-05
2.88716e-05
2.87273e-05
2.85042e-05
2.8171e-05
2.76914e-05
2.70318e-05
2.61977e-05
2.54672e-05
2.66878e-05
3.72667e-05
7.99009e-05
7.9388e-05
3.68552e-05
2.65984e-05
2.57274e-05
2.65114e-05
2.73315e-05
2.79587e-05
2.84016e-05
2.86988e-05
2.88892e-05
2.90057e-05
2.90736e-05
2.9111e-05
2.91302e-05
2.91381e-05
2.91381e-05
2.91302e-05
2.91112e-05
2.90738e-05
2.90061e-05
2.88897e-05
2.86993e-05
2.8402e-05
2.7959e-05
2.73315e-05
2.65112e-05
2.57273e-05
2.65994e-05
3.68576e-05
7.93928e-05
7.89642e-05
3.65704e-05
2.65762e-05
2.5942e-05
2.67537e-05
2.75562e-05
2.81529e-05
2.85624e-05
2.88276e-05
2.89899e-05
2.90831e-05
2.91329e-05
2.91572e-05
2.91679e-05
2.91718e-05
2.91718e-05
2.9168e-05
2.91573e-05
2.91329e-05
2.90832e-05
2.899e-05
2.88276e-05
2.85622e-05
2.81525e-05
2.75557e-05
2.6753e-05
2.59417e-05
2.65774e-05
3.65731e-05
7.89696e-05
7.86358e-05
3.63795e-05
2.65846e-05
2.61072e-05
2.69312e-05
2.77162e-05
2.82872e-05
2.86694e-05
2.89093e-05
2.90497e-05
2.91252e-05
2.91616e-05
2.91766e-05
2.91814e-05
2.91824e-05
2.91824e-05
2.91814e-05
2.91765e-05
2.91614e-05
2.91249e-05
2.90493e-05
2.89088e-05
2.86688e-05
2.82863e-05
2.77152e-05
2.69302e-05
2.61068e-05
2.65859e-05
3.63825e-05
7.86417e-05
7.84109e-05
3.62628e-05
2.66011e-05
2.62198e-05
2.70482e-05
2.78194e-05
2.83718e-05
2.87349e-05
2.89572e-05
2.90826e-05
2.91464e-05
2.91741e-05
2.91832e-05
2.91844e-05
2.91837e-05
2.91836e-05
2.91843e-05
2.9183e-05
2.91738e-05
2.91459e-05
2.9082e-05
2.89564e-05
2.87339e-05
2.83705e-05
2.7818e-05
2.70469e-05
2.62191e-05
2.66025e-05
3.62661e-05
7.84172e-05
7.82954e-05
3.62083e-05
2.66128e-05
2.62769e-05
2.71067e-05
2.78704e-05
2.8413e-05
2.87662e-05
2.89795e-05
2.90975e-05
2.91553e-05
2.91788e-05
2.91851e-05
2.91845e-05
2.9183e-05
2.91829e-05
2.91844e-05
2.91847e-05
2.91784e-05
2.91547e-05
2.90966e-05
2.89784e-05
2.87649e-05
2.84114e-05
2.78687e-05
2.71051e-05
2.6276e-05
2.66142e-05
3.62119e-05
7.83021e-05
7.82929e-05
3.62076e-05
2.66129e-05
2.62776e-05
2.71075e-05
2.78711e-05
2.84137e-05
2.87669e-05
2.89801e-05
2.9098e-05
2.91559e-05
2.91794e-05
2.91856e-05
2.91851e-05
2.91836e-05
2.91835e-05
2.91849e-05
2.91852e-05
2.91788e-05
2.91551e-05
2.9097e-05
2.89788e-05
2.87653e-05
2.84119e-05
2.78692e-05
2.71056e-05
2.62765e-05
2.66142e-05
3.62113e-05
7.83001e-05
7.84035e-05
3.62608e-05
2.66014e-05
2.62218e-05
2.70505e-05
2.78216e-05
2.83737e-05
2.87367e-05
2.89588e-05
2.90842e-05
2.9148e-05
2.91757e-05
2.91849e-05
2.91861e-05
2.91854e-05
2.91853e-05
2.91858e-05
2.91844e-05
2.91751e-05
2.91471e-05
2.90831e-05
2.89574e-05
2.8735e-05
2.83718e-05
2.78194e-05
2.70484e-05
2.62204e-05
2.66025e-05
3.62642e-05
7.84114e-05
7.86235e-05
3.63763e-05
2.65849e-05
2.61104e-05
2.69348e-05
2.77196e-05
2.82902e-05
2.86721e-05
2.89118e-05
2.90521e-05
2.91276e-05
2.91641e-05
2.91793e-05
2.91842e-05
2.91852e-05
2.91851e-05
2.91839e-05
2.91788e-05
2.91635e-05
2.91268e-05
2.9051e-05
2.89104e-05
2.86704e-05
2.82882e-05
2.77174e-05
2.69325e-05
2.61089e-05
2.65858e-05
3.63795e-05
7.86319e-05
7.89471e-05
3.65657e-05
2.65763e-05
2.59461e-05
2.67583e-05
2.75605e-05
2.81566e-05
2.85656e-05
2.88307e-05
2.8993e-05
2.90863e-05
2.91363e-05
2.91608e-05
2.91717e-05
2.91755e-05
2.91754e-05
2.91714e-05
2.91604e-05
2.91356e-05
2.90855e-05
2.89919e-05
2.88293e-05
2.8564e-05
2.81546e-05
2.75582e-05
2.6756e-05
2.59445e-05
2.65771e-05
3.65688e-05
7.89559e-05
7.93661e-05
3.68491e-05
2.6598e-05
2.5732e-05
2.65164e-05
2.7336e-05
2.79625e-05
2.84049e-05
2.8702e-05
2.88926e-05
2.90093e-05
2.90776e-05
2.91154e-05
2.91347e-05
2.91427e-05
2.91427e-05
2.91345e-05
2.9115e-05
2.9077e-05
2.90086e-05
2.88916e-05
2.87007e-05
2.84034e-05
2.79606e-05
2.73338e-05
2.65142e-05
2.57303e-05
2.65987e-05
3.6852e-05
7.93752e-05
7.987e-05
3.72571e-05
2.66853e-05
2.54712e-05
2.62018e-05
2.70348e-05
2.76934e-05
2.81726e-05
2.8506e-05
2.87296e-05
2.88748e-05
2.89658e-05
2.90207e-05
2.90513e-05
2.90649e-05
2.90648e-05
2.90511e-05
2.90203e-05
2.89653e-05
2.8874e-05
2.87287e-05
2.85049e-05
2.81713e-05
2.76918e-05
2.70329e-05
2.61998e-05
2.54697e-05
2.66863e-05
3.72599e-05
7.98794e-05
8.04467e-05
3.78365e-05
2.68995e-05
2.51766e-05
2.5809e-05
2.66456e-05
2.73316e-05
2.78459e-05
2.82163e-05
2.84755e-05
2.86525e-05
2.87703e-05
2.88457e-05
2.88902e-05
2.89107e-05
2.89106e-05
2.88899e-05
2.88452e-05
2.87697e-05
2.86518e-05
2.84747e-05
2.82153e-05
2.78447e-05
2.73302e-05
2.6644e-05
2.58074e-05
2.51756e-05
2.69011e-05
3.78391e-05
8.04561e-05
8.11024e-05
3.86656e-05
2.7367e-05
2.492e-05
2.53626e-05
2.61613e-05
2.68552e-05
2.73961e-05
2.78005e-05
2.80952e-05
2.83058e-05
2.84527e-05
2.85512e-05
2.86116e-05
2.86403e-05
2.86401e-05
2.86113e-05
2.85507e-05
2.8452e-05
2.8305e-05
2.80944e-05
2.77996e-05
2.73951e-05
2.6854e-05
2.61601e-05
2.53615e-05
2.49195e-05
2.73686e-05
3.86681e-05
8.11114e-05
8.2113e-05
3.98946e-05
2.83288e-05
2.48926e-05
2.49033e-05
2.55666e-05
2.62374e-05
2.67922e-05
2.72247e-05
2.75524e-05
2.77959e-05
2.79727e-05
2.80953e-05
2.81725e-05
2.82096e-05
2.82095e-05
2.8172e-05
2.80945e-05
2.79717e-05
2.77949e-05
2.75513e-05
2.72236e-05
2.67911e-05
2.62363e-05
2.55656e-05
2.49027e-05
2.4893e-05
2.83312e-05
3.98971e-05
8.21187e-05
8.32893e-05
4.18421e-05
2.99608e-05
2.51869e-05
2.44421e-05
2.48573e-05
2.54671e-05
2.60211e-05
2.64724e-05
2.68266e-05
2.70988e-05
2.73024e-05
2.74471e-05
2.75396e-05
2.75846e-05
2.75843e-05
2.75389e-05
2.7446e-05
2.7301e-05
2.70972e-05
2.68251e-05
2.6471e-05
2.60197e-05
2.54657e-05
2.48561e-05
2.44415e-05
2.51876e-05
2.99625e-05
4.18469e-05
8.32945e-05
8.44248e-05
4.50053e-05
3.22189e-05
2.61094e-05
2.42561e-05
2.42148e-05
2.46855e-05
2.51975e-05
2.56319e-05
2.59861e-05
2.6269e-05
2.64856e-05
2.66418e-05
2.67425e-05
2.67915e-05
2.67911e-05
2.67414e-05
2.66401e-05
2.64834e-05
2.62667e-05
2.59838e-05
2.56298e-05
2.51956e-05
2.46836e-05
2.42131e-05
2.42555e-05
2.61103e-05
3.22204e-05
4.50094e-05
8.4431e-05
8.59213e-05
4.89092e-05
3.59758e-05
2.85104e-05
2.52415e-05
2.45829e-05
2.47605e-05
2.50645e-05
2.5339e-05
2.55851e-05
2.57979e-05
2.5967e-05
2.60925e-05
2.61752e-05
2.62157e-05
2.62152e-05
2.61737e-05
2.60902e-05
2.5964e-05
2.57947e-05
2.55819e-05
2.53365e-05
2.50624e-05
2.47585e-05
2.4581e-05
2.52404e-05
2.85105e-05
3.59773e-05
4.89127e-05
8.59269e-05
8.97185e-05
4.98835e-05
4.07419e-05
3.28916e-05
3.01672e-05
2.95773e-05
2.94028e-05
2.91641e-05
2.89404e-05
2.87445e-05
2.85843e-05
2.84687e-05
2.83938e-05
2.83494e-05
2.83281e-05
2.83278e-05
2.83484e-05
2.83921e-05
2.84664e-05
2.85818e-05
2.87422e-05
2.89385e-05
2.91626e-05
2.94016e-05
2.95759e-05
3.0166e-05
3.28916e-05
4.07441e-05
4.98862e-05
8.97234e-05
7.76984e-05
2.33267e-05
4.08614e-05
4.17312e-05
4.30522e-05
4.33597e-05
4.30955e-05
4.27646e-05
4.22869e-05
4.17807e-05
4.13333e-05
4.09814e-05
4.07266e-05
4.05617e-05
4.04809e-05
4.04809e-05
4.05618e-05
4.07267e-05
4.09814e-05
4.13332e-05
4.17805e-05
4.22867e-05
4.27645e-05
4.30954e-05
4.33593e-05
4.30521e-05
4.1733e-05
4.08664e-05
2.33296e-05
7.77054e-05
0.000209926
0.000106486
9.25074e-05
8.49644e-05
8.2526e-05
8.12973e-05
8.04336e-05
7.95126e-05
7.86544e-05
7.79526e-05
7.74712e-05
7.71583e-05
7.69332e-05
7.67842e-05
7.67099e-05
7.67104e-05
7.67855e-05
7.69353e-05
7.71612e-05
7.74744e-05
7.79548e-05
7.86566e-05
7.9515e-05
8.0437e-05
8.13015e-05
8.25314e-05
8.49718e-05
9.25172e-05
0.000106498
0.000209947
0.000189163
9.48511e-05
8.34584e-05
7.74589e-05
7.58144e-05
7.50583e-05
7.44756e-05
7.38743e-05
7.33946e-05
7.30139e-05
7.2666e-05
7.23725e-05
7.21574e-05
7.20175e-05
7.19488e-05
7.19491e-05
7.20184e-05
7.21588e-05
7.23744e-05
7.26685e-05
7.30173e-05
7.33984e-05
7.38786e-05
7.448e-05
7.50642e-05
7.58222e-05
7.74686e-05
8.34708e-05
9.48664e-05
0.000189203
7.12453e-05
3.11645e-05
5.15543e-05
5.46366e-05
5.75551e-05
5.97284e-05
6.08839e-05
6.09255e-05
6.02567e-05
5.92416e-05
5.81628e-05
5.72006e-05
5.64462e-05
5.59357e-05
5.56799e-05
5.56807e-05
5.59381e-05
5.645e-05
5.72057e-05
5.81689e-05
5.92485e-05
6.02637e-05
6.0933e-05
6.08927e-05
5.97405e-05
5.75667e-05
5.46455e-05
5.15617e-05
3.11749e-05
7.12655e-05
8.22171e-05
5.73683e-05
5.09769e-05
4.46342e-05
4.0276e-05
3.8022e-05
3.66918e-05
3.57182e-05
3.48962e-05
3.41594e-05
3.35073e-05
3.29774e-05
3.25854e-05
3.23304e-05
3.22053e-05
3.22052e-05
3.23301e-05
3.2585e-05
3.29772e-05
3.3507e-05
3.41589e-05
3.4896e-05
3.57202e-05
3.66936e-05
3.80216e-05
4.02726e-05
4.46289e-05
5.09751e-05
5.73779e-05
8.22262e-05
7.87828e-05
6.04674e-05
4.9135e-05
3.68062e-05
2.98499e-05
2.7002e-05
2.60137e-05
2.56759e-05
2.55075e-05
2.53185e-05
2.51085e-05
2.49328e-05
2.48044e-05
2.4723e-05
2.46841e-05
2.46841e-05
2.47232e-05
2.48048e-05
2.49334e-05
2.51091e-05
2.53187e-05
2.55065e-05
2.56747e-05
2.60117e-05
2.69982e-05
2.98433e-05
3.68014e-05
4.91375e-05
6.04803e-05
7.87888e-05
7.72263e-05
5.84657e-05
4.39808e-05
3.14675e-05
2.5417e-05
2.29589e-05
2.22066e-05
2.21597e-05
2.23067e-05
2.24637e-05
2.25876e-05
2.26874e-05
2.2761e-05
2.28113e-05
2.28371e-05
2.2837e-05
2.2811e-05
2.27606e-05
2.26868e-05
2.25868e-05
2.24626e-05
2.23046e-05
2.21565e-05
2.22018e-05
2.29529e-05
2.54134e-05
3.14652e-05
4.39839e-05
5.8475e-05
7.72273e-05
7.63216e-05
5.67597e-05
3.87134e-05
2.79688e-05
2.33867e-05
2.17154e-05
2.14592e-05
2.17184e-05
2.20781e-05
2.24002e-05
2.26535e-05
2.28428e-05
2.29771e-05
2.30636e-05
2.31061e-05
2.3106e-05
2.30631e-05
2.29763e-05
2.28416e-05
2.26519e-05
2.2398e-05
2.20751e-05
2.17145e-05
2.14543e-05
2.17105e-05
2.33831e-05
2.79692e-05
3.87168e-05
5.67654e-05
7.63187e-05
7.57299e-05
5.45263e-05
3.46491e-05
2.58755e-05
2.24325e-05
2.15825e-05
2.17366e-05
2.21455e-05
2.25691e-05
2.29316e-05
2.3217e-05
2.34296e-05
2.35791e-05
2.3674e-05
2.372e-05
2.37198e-05
2.36734e-05
2.35781e-05
2.34283e-05
2.32153e-05
2.29295e-05
2.25665e-05
2.21425e-05
2.17334e-05
2.15796e-05
2.24313e-05
2.58773e-05
3.46521e-05
5.45275e-05
7.57251e-05
7.52402e-05
5.21798e-05
3.20462e-05
2.46202e-05
2.20647e-05
2.18207e-05
2.22082e-05
2.27e-05
2.31484e-05
2.35158e-05
2.37991e-05
2.40072e-05
2.41516e-05
2.42422e-05
2.42857e-05
2.42856e-05
2.42417e-05
2.41508e-05
2.40061e-05
2.37977e-05
2.35142e-05
2.31467e-05
2.26983e-05
2.22067e-05
2.182e-05
2.20653e-05
2.46225e-05
3.2048e-05
5.21801e-05
7.52348e-05
7.47224e-05
4.99093e-05
3.03778e-05
2.37489e-05
2.19673e-05
2.21242e-05
2.26556e-05
2.31941e-05
2.36498e-05
2.40085e-05
2.42776e-05
2.4471e-05
2.46025e-05
2.46837e-05
2.47222e-05
2.47221e-05
2.46833e-05
2.46019e-05
2.44702e-05
2.42767e-05
2.40076e-05
2.3649e-05
2.31936e-05
2.26556e-05
2.21251e-05
2.19694e-05
2.37516e-05
3.03796e-05
4.99095e-05
7.47162e-05
7.43079e-05
4.79142e-05
2.92692e-05
2.32756e-05
2.20657e-05
2.24288e-05
2.30362e-05
2.35943e-05
2.4045e-05
2.43876e-05
2.46371e-05
2.48115e-05
2.49271e-05
2.49968e-05
2.50295e-05
2.50294e-05
2.49966e-05
2.49267e-05
2.48111e-05
2.46367e-05
2.43873e-05
2.40449e-05
2.35948e-05
2.30374e-05
2.24308e-05
2.20687e-05
2.32787e-05
2.92713e-05
4.79143e-05
7.43008e-05
7.39888e-05
4.62885e-05
2.85168e-05
2.30324e-05
2.22229e-05
2.27019e-05
2.3344e-05
2.39037e-05
2.4341e-05
2.46637e-05
2.48917e-05
2.50461e-05
2.51454e-05
2.52037e-05
2.52305e-05
2.52305e-05
2.52036e-05
2.51453e-05
2.5046e-05
2.48917e-05
2.4664e-05
2.43416e-05
2.39049e-05
2.3346e-05
2.27047e-05
2.22266e-05
2.30359e-05
2.8519e-05
4.62885e-05
7.39808e-05
7.37511e-05
4.50502e-05
2.80046e-05
2.291e-05
2.23761e-05
2.29254e-05
2.35813e-05
2.41333e-05
2.45535e-05
2.48556e-05
2.50629e-05
2.51988e-05
2.52833e-05
2.53314e-05
2.53529e-05
2.5353e-05
2.53314e-05
2.52834e-05
2.5199e-05
2.50633e-05
2.48563e-05
2.45547e-05
2.41351e-05
2.35839e-05
2.29288e-05
2.23803e-05
2.29137e-05
2.8007e-05
4.50502e-05
7.37423e-05
7.35835e-05
4.41749e-05
2.7665e-05
2.28485e-05
2.24993e-05
2.30923e-05
2.37526e-05
2.42942e-05
2.4698e-05
2.49819e-05
2.51716e-05
2.52923e-05
2.53647e-05
2.54045e-05
2.54219e-05
2.5422e-05
2.54046e-05
2.53649e-05
2.52927e-05
2.51723e-05
2.4983e-05
2.46996e-05
2.42964e-05
2.37556e-05
2.30962e-05
2.25038e-05
2.28524e-05
2.76676e-05
4.41753e-05
7.35741e-05
7.34785e-05
4.36283e-05
2.74653e-05
2.28207e-05
2.25836e-05
2.32022e-05
2.3863e-05
2.43957e-05
2.4787e-05
2.50574e-05
2.52345e-05
2.53443e-05
2.54083e-05
2.54424e-05
2.54569e-05
2.5457e-05
2.54426e-05
2.54086e-05
2.53449e-05
2.52354e-05
2.50587e-05
2.47889e-05
2.43983e-05
2.38664e-05
2.32064e-05
2.25884e-05
2.28251e-05
2.74685e-05
4.36297e-05
7.3469e-05
7.34319e-05
4.33979e-05
2.73787e-05
2.28117e-05
2.2626e-05
2.32562e-05
2.39167e-05
2.44444e-05
2.4829e-05
2.50923e-05
2.52628e-05
2.5367e-05
2.54266e-05
2.54578e-05
2.54709e-05
2.5471e-05
2.54581e-05
2.54271e-05
2.53677e-05
2.52638e-05
2.50938e-05
2.4831e-05
2.44472e-05
2.39202e-05
2.32607e-05
2.26312e-05
2.28166e-05
2.73825e-05
4.34008e-05
7.34226e-05
7.34337e-05
4.33969e-05
2.73781e-05
2.28109e-05
2.26251e-05
2.32554e-05
2.39159e-05
2.44437e-05
2.48283e-05
2.50917e-05
2.52621e-05
2.53663e-05
2.54259e-05
2.54571e-05
2.54702e-05
2.54703e-05
2.54574e-05
2.54264e-05
2.5367e-05
2.52632e-05
2.50932e-05
2.48304e-05
2.44465e-05
2.39195e-05
2.32599e-05
2.26305e-05
2.2816e-05
2.73822e-05
4.34003e-05
7.34242e-05
7.34839e-05
4.36267e-05
2.74638e-05
2.28181e-05
2.25808e-05
2.31996e-05
2.38606e-05
2.43935e-05
2.4785e-05
2.50554e-05
2.52325e-05
2.53422e-05
2.54062e-05
2.54402e-05
2.54548e-05
2.54549e-05
2.54405e-05
2.54066e-05
2.5343e-05
2.52336e-05
2.50569e-05
2.4787e-05
2.43964e-05
2.38643e-05
2.32042e-05
2.25862e-05
2.28232e-05
2.74677e-05
4.36299e-05
7.34739e-05
7.35924e-05
4.41724e-05
2.76625e-05
2.2844e-05
2.24945e-05
2.3088e-05
2.37487e-05
2.42906e-05
2.46947e-05
2.49786e-05
2.51683e-05
2.52888e-05
2.53611e-05
2.54009e-05
2.54182e-05
2.54183e-05
2.54011e-05
2.53615e-05
2.52895e-05
2.51693e-05
2.498e-05
2.46967e-05
2.42934e-05
2.37523e-05
2.30926e-05
2.25e-05
2.28492e-05
2.76663e-05
4.4176e-05
7.35824e-05
7.37635e-05
4.50468e-05
2.80007e-05
2.29035e-05
2.23694e-05
2.29193e-05
2.3576e-05
2.41284e-05
2.45489e-05
2.4851e-05
2.50582e-05
2.5194e-05
2.52782e-05
2.53262e-05
2.53477e-05
2.53477e-05
2.53263e-05
2.52785e-05
2.51945e-05
2.5059e-05
2.48523e-05
2.45507e-05
2.4131e-05
2.35794e-05
2.29238e-05
2.23749e-05
2.29088e-05
2.80047e-05
4.50512e-05
7.3754e-05
7.40043e-05
4.62841e-05
2.85108e-05
2.30236e-05
2.22142e-05
2.26944e-05
2.33375e-05
2.38978e-05
2.43353e-05
2.46579e-05
2.48857e-05
2.50397e-05
2.51387e-05
2.51968e-05
2.52235e-05
2.52235e-05
2.51968e-05
2.51388e-05
2.504e-05
2.48862e-05
2.46589e-05
2.43368e-05
2.39001e-05
2.33407e-05
2.26986e-05
2.22195e-05
2.30288e-05
2.85147e-05
4.62895e-05
7.39958e-05
7.43262e-05
4.79086e-05
2.92613e-05
2.32647e-05
2.20555e-05
2.24202e-05
2.3029e-05
2.35876e-05
2.40383e-05
2.43807e-05
2.46297e-05
2.48034e-05
2.49185e-05
2.49879e-05
2.50204e-05
2.50204e-05
2.49878e-05
2.49184e-05
2.48034e-05
2.46299e-05
2.43813e-05
2.40395e-05
2.35895e-05
2.30318e-05
2.24241e-05
2.20604e-05
2.32699e-05
2.92654e-05
4.79148e-05
7.43191e-05
7.47431e-05
4.99027e-05
3.0368e-05
2.37366e-05
2.19564e-05
2.21155e-05
2.26482e-05
2.3187e-05
2.36424e-05
2.40003e-05
2.42685e-05
2.4461e-05
2.45918e-05
2.46725e-05
2.47108e-05
2.47107e-05