/*--------------------------------*- C++ -*----------------------------------*\
| =========                 |                                                 |
| \\      /  F ield         | OpenFOAM: The Open Source CFD Toolbox           |
|  \\    /   O peration     | Version:  2312                                  |
|   \\  /    A nd           | Website:  www.openfoam.com                      |
|    \\/     M anipulation  |                                                 |
\*---------------------------------------------------------------------------*/
FoamFile
{
    version     2.0;
    format      ascii;
    arch        "LSB;label=32;scalar=64";
    class       volScalarField;
    location    "450";
    object      nut;
}
// * * * * * * * * * * * * * * * * * * * * * * * * * * * * * * * * * * * * * //

dimensions      [0 2 -1 0 0 0 0];

internalField   nonuniform List<scalar> 
27000
(
3.9523e-06
6.70738e-06
9.3638e-06
1.17393e-05
1.40472e-05
1.62009e-05
1.81561e-05
1.98072e-05
2.12272e-05
2.24397e-05
2.34395e-05
2.42315e-05
2.48225e-05
2.52154e-05
2.54116e-05
2.54115e-05
2.52153e-05
2.48223e-05
2.42312e-05
2.34393e-05
2.24395e-05
2.1227e-05
1.9807e-05
1.81559e-05
1.62009e-05
1.40472e-05
1.17394e-05
9.36399e-06
6.70736e-06
3.95246e-06
5.75165e-06
1.28068e-06
5.15938e-06
9.07693e-06
1.31621e-05
1.70419e-05
2.07064e-05
2.41146e-05
2.72023e-05
2.99492e-05
3.23372e-05
3.43263e-05
3.58643e-05
3.69112e-05
3.74411e-05
3.74412e-05
3.69114e-05
3.58647e-05
3.43269e-05
3.23377e-05
2.99493e-05
2.72022e-05
2.41145e-05
2.07063e-05
1.70417e-05
1.31622e-05
9.07739e-06
5.16001e-06
1.28066e-06
5.75212e-06
9.22712e-06
7.14103e-06
1.45135e-05
2.61434e-05
3.68786e-05
4.62394e-05
5.47951e-05
6.28226e-05
7.01391e-05
7.66081e-05
8.21562e-05
8.67164e-05
9.02111e-05
9.25755e-05
9.37677e-05
9.37676e-05
9.25754e-05
9.0211e-05
8.67165e-05
8.21552e-05
7.66049e-05
7.01341e-05
6.28161e-05
5.47876e-05
4.62313e-05
3.68726e-05
2.61396e-05
1.45124e-05
7.14171e-06
9.2274e-06
1.2155e-05
1.08396e-05
2.60443e-05
5.26503e-05
7.8288e-05
9.63906e-05
0.000109866
0.000120911
0.000130245
0.000138026
0.000144426
0.00014952
0.000153332
0.000155871
0.00015714
0.00015714
0.00015587
0.000153331
0.000149518
0.000144421
0.000138018
0.000130233
0.000120896
0.00010985
9.63748e-05
7.82755e-05
5.26409e-05
2.60398e-05
1.084e-05
1.21554e-05
1.49191e-05
1.44749e-05
3.68628e-05
7.62012e-05
0.000113342
0.000139197
0.000156022
0.000167818
0.000176743
0.000183253
0.000188299
0.000192219
0.000195089
0.000196974
0.000197909
0.000197909
0.000196973
0.000195087
0.000192215
0.000188294
0.000183249
0.000176733
0.000167804
0.000156005
0.000139181
0.000113328
7.61887e-05
3.68562e-05
1.44747e-05
1.49195e-05
1.74793e-05
1.84135e-05
4.76939e-05
9.52368e-05
0.000137839
0.000167217
0.000185417
0.0001968
0.00020432
0.000209431
0.000213026
0.000215612
0.000217425
0.000218586
0.000219154
0.000219153
0.000218585
0.000217423
0.000215608
0.000213021
0.000209424
0.00020431
0.000196787
0.000185403
0.000167201
0.000137824
9.52236e-05
4.76863e-05
1.84129e-05
1.74797e-05
1.98115e-05
2.25597e-05
5.858e-05
0.000111496
0.000155745
0.000185098
0.000202835
0.000213204
0.000219353
0.000223108
0.000225481
0.000227028
0.000228036
0.000228652
0.000228946
0.000228945
0.000228651
0.000228034
0.000227025
0.000225477
0.000223102
0.000219344
0.000213193
0.000202824
0.000185086
0.000155733
0.000111484
5.85732e-05
2.25592e-05
1.98119e-05
2.18958e-05
2.67597e-05
6.91347e-05
0.000125593
0.000169833
0.000197325
0.000213346
0.000222247
0.000227096
0.00022974
0.000231201
0.000232029
0.000232506
0.000232771
0.00023289
0.00023289
0.00023277
0.000232504
0.000232026
0.000231197
0.000229734
0.000227089
0.000222239
0.000213338
0.000197315
0.000169823
0.000125584
6.91291e-05
2.67591e-05
2.18963e-05
2.37093e-05
3.08864e-05
7.9001e-05
0.000137681
0.00018097
0.000206047
0.000219968
0.000227283
0.000230956
0.000232726
0.000233543
0.000233905
0.000234057
0.000234118
0.000234139
0.000234138
0.000234117
0.000234055
0.000233902
0.000233539
0.00023272
0.00023095
0.000227277
0.000219962
0.00020604
0.000180963
0.000137675
7.89967e-05
3.08858e-05
2.37097e-05
2.52639e-05
3.47793e-05
8.79483e-05
0.000147809
0.000188838
0.000212102
0.000224207
0.000230132
0.000232835
0.000233947
0.000234327
0.000234401
0.000234372
0.000234325
0.000234296
0.000234296
0.000234324
0.000234369
0.000234398
0.000234323
0.000233943
0.00023283
0.000230127
0.000224202
0.000212098
0.000188834
0.000147806
8.79455e-05
3.47787e-05
2.52643e-05
2.656e-05
3.8284e-05
9.57607e-05
0.000156291
0.000195387
0.000216553
0.000227016
0.000231786
0.000233732
0.000234372
0.000234467
0.000234375
0.000234251
0.000234155
0.000234105
0.000234104
0.000234154
0.000234249
0.000234372
0.000234463
0.000234368
0.000233728
0.000231783
0.000227013
0.000216551
0.000195385
0.00015629
9.57594e-05
3.82835e-05
2.65603e-05
2.75969e-05
4.12644e-05
0.000102222
0.000163059
0.000200491
0.000219841
0.000228925
0.000232777
0.000234158
0.000234471
0.000234387
0.000234205
0.000234039
0.000233926
0.00023387
0.00023387
0.000233925
0.000234037
0.000234202
0.000234384
0.000234468
0.000234155
0.000232775
0.000228923
0.00021984
0.000200491
0.00016306
0.000102222
4.12642e-05
2.75971e-05
2.83745e-05
4.36054e-05
0.000107182
0.000168135
0.000204211
0.000222156
0.000230196
0.000233375
0.000234359
0.000234457
0.000234268
0.00023404
0.00023386
0.000233746
0.000233691
0.000233691
0.000233745
0.000233859
0.000234039
0.000234266
0.000234455
0.000234357
0.000233375
0.000230196
0.000222157
0.000204212
0.000168136
0.000107184
4.36054e-05
2.83746e-05
2.88931e-05
4.5217e-05
0.000110541
0.000171531
0.000206636
0.000223628
0.000230975
0.000233718
0.000234452
0.000234421
0.000234174
0.000233927
0.000233745
0.000233633
0.000233582
0.000233581
0.000233633
0.000233744
0.000233926
0.000234173
0.000234421
0.000234451
0.000233718
0.000230977
0.00022363
0.000206639
0.000171533
0.000110544
4.52174e-05
2.8893e-05
2.91527e-05
4.60376e-05
0.000112233
0.000173222
0.000207829
0.000224341
0.000231345
0.000233873
0.000234488
0.000234397
0.000234125
0.00023387
0.000233689
0.00023358
0.000233531
0.000233531
0.00023358
0.000233689
0.00023387
0.000234125
0.000234397
0.000234489
0.000233875
0.000231347
0.000224344
0.000207833
0.000173226
0.000112238
4.60385e-05
2.91524e-05
2.91532e-05
4.60367e-05
0.00011223
0.000173219
0.000207827
0.00022434
0.000231344
0.000233873
0.000234487
0.000234396
0.000234124
0.000233869
0.000233688
0.000233579
0.00023353
0.00023353
0.000233579
0.000233688
0.00023387
0.000234125
0.000234397
0.000234489
0.000233875
0.000231347
0.000224344
0.000207832
0.000173225
0.000112236
4.6038e-05
2.91527e-05
2.88946e-05
4.52144e-05
0.000110532
0.000171522
0.000206631
0.000223625
0.000230974
0.000233716
0.00023445
0.000234419
0.000234171
0.000233923
0.000233741
0.000233629
0.000233578
0.000233578
0.00023363
0.000233742
0.000233925
0.000234173
0.000234421
0.000234452
0.000233719
0.000230977
0.00022363
0.000206637
0.000171529
0.000110539
4.52161e-05
2.8894e-05
2.83769e-05
4.36015e-05
0.000107168
0.000168121
0.000204203
0.000222152
0.000230194
0.000233374
0.000234357
0.000234454
0.000234264
0.000234036
0.000233855
0.00023374
0.000233685
0.000233686
0.000233741
0.000233856
0.000234037
0.000234266
0.000234456
0.000234359
0.000233377
0.000230198
0.000222158
0.00020421
0.00016813
0.000107176
4.36035e-05
2.83761e-05
2.76e-05
4.12597e-05
0.000102203
0.000163042
0.000200481
0.000219837
0.000228923
0.000232777
0.000234156
0.000234468
0.000234383
0.0002342
0.000234033
0.00023392
0.000233864
0.000233864
0.00023392
0.000234035
0.000234201
0.000234385
0.00023447
0.000234159
0.00023278
0.000228928
0.000219843
0.000200489
0.000163053
0.000102213
4.12619e-05
2.7599e-05
2.65637e-05
3.82791e-05
9.57395e-05
0.000156271
0.000195376
0.00021655
0.000227016
0.000231787
0.000233732
0.000234371
0.000234464
0.000234371
0.000234246
0.000234149
0.000234099
0.000234099
0.00023415
0.000234247
0.000234373
0.000234466
0.000234373
0.000233735
0.00023179
0.000227021
0.000216556
0.000195385
0.000156283
9.57494e-05
3.82813e-05
2.65626e-05
2.5268e-05
3.47748e-05
8.7927e-05
0.000147788
0.000188827
0.000212099
0.000224207
0.000230134
0.000232836
0.000233948
0.000234326
0.000234399
0.000234368
0.000234321
0.000234292
0.000234292
0.000234322
0.000234369
0.000234401
0.000234328
0.00023395
0.000232839
0.000230137
0.000224212
0.000212106
0.000188836
0.0001478
8.79366e-05
3.47769e-05
2.52669e-05
2.37135e-05
3.08831e-05
7.89821e-05
0.00013766
0.000180958
0.000206042
0.000219967
0.000227284
0.000230958
0.000232727
0.000233544
0.000233904
0.000234055
0.000234115
0.000234136
0.000234136
0.000234116
0.000234057
0.000233906
0.000233546
0.00023273
0.000230961
0.000227288
0.000219973
0.00020605
0.000180968
0.000137672
7.89907e-05
3.08848e-05
2.37124e-05
2.18999e-05
2.6758e-05
6.91181e-05
0.000125571
0.000169819
0.000197314
0.000213339
0.000222243
0.000227095
0.00022974
0.000231202
0.000232028
0.000232503
0.000232767
0.000232887
0.000232887
0.000232769
0.000232505
0.000232031
0.000231204
0.000229743
0.000227098
0.000222247
0.000213346
0.000197323
0.00016983
0.000125583
6.91261e-05
2.67592e-05
2.18989e-05
1.98146e-05
2.256e-05
5.85654e-05
0.00011147
0.000155719
0.000185076
0.000202817
0.00021319
0.000219345
0.000223105
0.000225478
0.000227023
0.000228029
0.000228644
0.000228938
0.000228938
0.000228646
0.000228032
0.000227026
0.000225482
0.000223109
0.000219349
0.000213196
0.000202824
0.000185086
0.000155731
0.000111482
5.85722e-05
2.25605e-05
1.98139e-05
1.7482e-05
1.84137e-05
4.76762e-05
9.52039e-05
0.000137799
0.000167185
0.000185382
0.000196773
0.000204303
0.000209422
0.000213014
0.000215596
0.000217407
0.000218566
0.000219134
0.000219134
0.000218568
0.00021741
0.0002156
0.000213019
0.000209427
0.000204309
0.00019678
0.00018539
0.000167195
0.000137811
9.52156e-05
4.76824e-05
1.84138e-05
1.74814e-05
1.49213e-05
1.44761e-05
3.68484e-05
7.61616e-05
0.000113285
0.000139138
0.000155968
0.000167784
0.000176719
0.000183244
0.00018827
0.000192183
0.00019505
0.000196933
0.000197868
0.000197869
0.000196936
0.000195054
0.000192189
0.000188277
0.000183253
0.000176728
0.000167792
0.000155977
0.000139147
0.000113296
7.61714e-05
3.6853e-05
1.44759e-05
1.49209e-05
1.21567e-05
1.08417e-05
2.60346e-05
5.26108e-05
7.82319e-05
9.63297e-05
0.000109807
0.000120857
0.000130195
0.000137979
0.000144377
0.000149468
0.000153275
0.000155809
0.000157076
0.000157077
0.000155812
0.00015328
0.000149475
0.000144384
0.000137987
0.000130204
0.000120865
0.000109815
9.63365e-05
7.82384e-05
5.26175e-05
2.60373e-05
1.08411e-05
1.21564e-05
9.2281e-06
7.14214e-06
1.45124e-05
2.613e-05
3.68551e-05
4.62094e-05
5.47667e-05
6.2792e-05
7.01066e-05
7.65744e-05
8.21208e-05
8.66757e-05
9.01624e-05
9.25203e-05
9.37101e-05
9.37109e-05
9.25229e-05
9.01668e-05
8.66815e-05
8.21272e-05
7.65808e-05
7.01129e-05
6.27978e-05
5.47713e-05
4.62127e-05
3.68577e-05
2.6132e-05
1.45128e-05
7.1415e-06
9.22785e-06
5.7527e-06
1.28089e-06
5.16134e-06
9.07876e-06
1.3163e-05
1.70416e-05
2.0706e-05
2.41134e-05
2.72001e-05
2.99458e-05
3.23312e-05
3.43182e-05
3.58545e-05
3.69001e-05
3.74295e-05
3.74297e-05
3.69007e-05
3.58554e-05
3.43193e-05
3.23323e-05
2.99467e-05
2.72008e-05
2.41138e-05
2.0706e-05
1.70415e-05
1.31627e-05
9.07836e-06
5.16111e-06
1.2808e-06
5.75249e-06
3.95266e-06
6.70772e-06
9.36478e-06
1.17407e-05
1.4049e-05
1.62033e-05
1.81588e-05
1.98103e-05
2.12306e-05
2.24436e-05
2.34447e-05
2.4237e-05
2.48282e-05
2.52212e-05
2.54174e-05
2.54173e-05
2.5221e-05
2.48278e-05
2.42365e-05
2.34441e-05
2.24431e-05
2.12301e-05
1.98097e-05
1.81583e-05
1.62028e-05
1.40486e-05
1.17403e-05
9.36446e-06
6.70747e-06
3.95252e-06
3.55772e-06
6.08301e-06
8.69116e-06
1.10705e-05
1.34517e-05
1.5702e-05
1.77741e-05
1.9546e-05
2.1081e-05
2.24043e-05
2.35268e-05
2.44374e-05
2.51239e-05
2.55827e-05
2.58124e-05
2.58125e-05
2.55828e-05
2.51241e-05
2.44377e-05
2.35271e-05
2.24046e-05
2.10812e-05
1.95463e-05
1.77743e-05
1.57021e-05
1.34516e-05
1.10702e-05
8.69074e-06
6.0824e-06
3.55739e-06
5.11555e-06
1.60666e-06
7.44556e-06
1.10163e-05
1.46012e-05
1.7618e-05
2.02092e-05
2.26102e-05
2.46967e-05
2.6477e-05
2.79469e-05
2.91113e-05
2.99826e-05
3.05646e-05
3.08562e-05
3.08563e-05
3.05647e-05
2.99828e-05
2.91114e-05
2.7947e-05
2.64774e-05
2.46971e-05
2.26105e-05
2.0209e-05
1.7615e-05
1.4598e-05
1.10139e-05
7.44327e-06
1.6061e-06
5.11508e-06
8.68086e-06
1.01779e-05
1.32278e-05
1.67025e-05
2.18606e-05
2.73042e-05
3.23378e-05
3.67289e-05
4.07272e-05
4.42942e-05
4.73298e-05
4.97808e-05
5.16262e-05
5.2855e-05
5.34699e-05
5.34695e-05
5.28537e-05
5.16233e-05
4.97727e-05
4.73209e-05
4.42915e-05
4.07269e-05
3.673e-05
3.23395e-05
2.73077e-05
2.18633e-05
1.67045e-05
1.32285e-05
1.01766e-05
8.68039e-06
1.15692e-05
1.3399e-05
1.79051e-05
2.56888e-05
3.60098e-05
4.66869e-05
5.61218e-05
6.43086e-05
7.15606e-05
7.80501e-05
8.3647e-05
8.81765e-05
9.15772e-05
9.38312e-05
9.49512e-05
9.49488e-05
9.38238e-05
9.15648e-05
8.81593e-05
8.36299e-05
7.80378e-05
7.15549e-05
6.43077e-05
5.61256e-05
4.66933e-05
3.60143e-05
2.56926e-05
1.7907e-05
1.33963e-05
1.15687e-05
1.44291e-05
1.58815e-05
2.2802e-05
3.5939e-05
5.45625e-05
7.40615e-05
9.01456e-05
0.000102602
0.00011273
0.000121447
0.000128583
0.00013414
0.000138215
0.000140827
0.000142091
0.00014209
0.000140822
0.000138206
0.000134129
0.000128573
0.000121438
0.000112729
0.000102609
9.01602e-05
7.40797e-05
5.4577e-05
3.59484e-05
2.28069e-05
1.58791e-05
1.44289e-05
1.7147e-05
1.81053e-05
2.86179e-05
4.71427e-05
7.36049e-05
0.000100245
0.000122366
0.000138231
0.000149743
0.000158537
0.000165319
0.000170428
0.000174088
0.000176431
0.000177568
0.000177567
0.000176429
0.000174084
0.000170424
0.000165316
0.000158537
0.000149748
0.000138241
0.000122384
0.000100268
7.36264e-05
4.71552e-05
2.86233e-05
1.81031e-05
1.71472e-05
1.96605e-05
2.05468e-05
3.39752e-05
5.834e-05
9.10649e-05
0.000122602
0.000146975
0.000164226
0.000176177
0.000184597
0.000190635
0.00019495
0.000197929
0.0001998
0.000200701
0.0002007
0.000199799
0.000197928
0.000194949
0.000190635
0.000184599
0.000176181
0.000164233
0.000146987
0.00012262
9.10836e-05
5.83504e-05
3.39791e-05
2.05469e-05
1.96609e-05
2.19645e-05
2.30277e-05
3.90532e-05
6.88744e-05
0.000106076
0.000139847
0.000164846
0.000182162
0.000193787
0.00020155
0.000206766
0.000210272
0.000212576
0.000213974
0.000214635
0.000214635
0.000213974
0.000212575
0.000210272
0.000206767
0.000201552
0.00019379
0.000182167
0.000164854
0.000139857
0.000106087
6.88804e-05
3.90553e-05
2.30279e-05
2.1965e-05
2.40633e-05
2.53396e-05
4.39226e-05
7.87744e-05
0.000119
0.000153227
0.000177811
0.000194408
0.000205225
0.000212146
0.000216542
0.000219317
0.000221036
0.000222033
0.00022249
0.00022249
0.000222033
0.000221037
0.000219318
0.000216543
0.000212148
0.000205227
0.00019441
0.000177814
0.000153231
0.000119004
7.87761e-05
4.3923e-05
2.53396e-05
2.4064e-05
2.59021e-05
2.74198e-05
4.83445e-05
8.74481e-05
0.000130176
0.000163786
0.000187316
0.000202801
0.000212595
0.000218616
0.000222244
0.000224394
0.000225639
0.000226318
0.000226617
0.000226617
0.000226318
0.000225639
0.000224395
0.000222245
0.000218617
0.000212595
0.000202801
0.000187315
0.000163786
0.000130174
8.74463e-05
4.83432e-05
2.74192e-05
2.5903e-05
2.74601e-05
2.92335e-05
5.21952e-05
9.46198e-05
0.000138537
0.000171755
0.000194214
0.000208552
0.000217326
0.000222506
0.000225466
0.000227106
0.000227983
0.000228424
0.000228607
0.000228607
0.000228424
0.000227983
0.000227106
0.000225466
0.000222505
0.000217324
0.000208549
0.000194211
0.000171751
0.000138532
9.46151e-05
5.21922e-05
2.92324e-05
2.74611e-05
2.87226e-05
3.07442e-05
5.54106e-05
0.000100371
0.000144889
0.000177617
0.000199123
0.000212452
0.000220342
0.000224813
0.000227234
0.000228481
0.000229087
0.000229359
0.000229461
0.000229461
0.000229359
0.000229086
0.000228479
0.000227232
0.00022481
0.000220338
0.000212447
0.000199117
0.000177609
0.00014488
0.000100364
5.54062e-05
3.07425e-05
2.87238e-05
2.96786e-05
3.19168e-05
5.79219e-05
0.000104753
0.000149551
0.00018178
0.000202497
0.000215023
0.000222222
0.000226152
0.000228173
0.000229139
0.000229558
0.000229718
0.000229766
0.000229766
0.000229717
0.000229556
0.000229136
0.000228169
0.000226147
0.000222216
0.000215015
0.000202488
0.000181769
0.000149539
0.000104742
5.79162e-05
3.19146e-05
2.96799e-05
3.03199e-05
3.27199e-05
5.96479e-05
0.000107734
0.000152644
0.000184471
0.00020462
0.000216588
0.000223318
0.000226886
0.000228645
0.000229432
0.000229735
0.000229827
0.000229844
0.000229843
0.000229825
0.000229733
0.000229428
0.00022864
0.000226879
0.00022331
0.000216579
0.000204609
0.000184458
0.000152629
0.000107721
5.96414e-05
3.27174e-05
3.03213e-05
3.06415e-05
3.31312e-05
6.05307e-05
0.000109239
0.000154188
0.000185797
0.000205649
0.000217332
0.000223824
0.000227211
0.000228842
0.000229542
0.000229791
0.000229851
0.000229853
0.000229852
0.000229849
0.000229788
0.000229538
0.000228836
0.000227204
0.000223815
0.000217321
0.000205636
0.000185782
0.000154172
0.000109225
6.05241e-05
3.31287e-05
3.0643e-05
3.0641e-05
3.31321e-05
6.05325e-05
0.000109243
0.000154191
0.000185798
0.00020565
0.000217334
0.000223827
0.000227215
0.000228846
0.000229547
0.000229796
0.000229856
0.000229858
0.000229857
0.000229853
0.000229792
0.000229541
0.000228839
0.000227206
0.000223817
0.000217322
0.000205637
0.000185783
0.000154174
0.000109227
6.05257e-05
3.31294e-05
3.06426e-05
3.03185e-05
3.27228e-05
5.96534e-05
0.000107746
0.000152651
0.000184475
0.000204624
0.000216593
0.000223325
0.000226895
0.000228656
0.000229444
0.000229749
0.000229841
0.000229858
0.000229858
0.000229839
0.000229745
0.000229439
0.000228649
0.000226886
0.000223315
0.000216582
0.000204611
0.000184461
0.000152634
0.000107729
5.96461e-05
3.27197e-05
3.03202e-05
2.96763e-05
3.19214e-05
5.79305e-05
0.00010477
0.000149562
0.000181785
0.000202502
0.00021503
0.000222233
0.000226166
0.00022819
0.000229158
0.00022958
0.00022974
0.000229789
0.000229788
0.000229738
0.000229576
0.000229153
0.000228183
0.000226157
0.000222223
0.000215019
0.00020249
0.000181772
0.000149546
0.000104755
5.79234e-05
3.19182e-05
2.9678e-05
2.87196e-05
3.07502e-05
5.54215e-05
0.000100394
0.000144901
0.000177622
0.000199128
0.000212459
0.000220353
0.000224829
0.000227254
0.000228505
0.000229114
0.000229388
0.00022949
0.000229489
0.000229386
0.00022911
0.0002285
0.000227248
0.000224821
0.000220345
0.00021245
0.000199118
0.000177611
0.000144887
0.00010038
5.54151e-05
3.07471e-05
2.87213e-05
2.74564e-05
2.92402e-05
5.22073e-05
9.46439e-05
0.000138548
0.000171758
0.000194216
0.000208557
0.000217336
0.000222522
0.000225487
0.000227132
0.000228012
0.000228456
0.00022864
0.000228639
0.000228454
0.000228009
0.000227127
0.000225482
0.000222516
0.000217329
0.000208549
0.000194208
0.000171749
0.000138537
9.46317e-05
5.2202e-05
2.92374e-05
2.74581e-05
2.5898e-05
2.74267e-05
4.83551e-05
8.74693e-05
0.000130185
0.000163787
0.000187314
0.000202802
0.000212601
0.000218629
0.000222263
0.000224419
0.000225668
0.00022635
0.00022665
0.000226649
0.000226348
0.000225665
0.000224415
0.000222259
0.000218625
0.000212596
0.000202796
0.000187307
0.000163779
0.000130175
8.74592e-05
4.83509e-05
2.74241e-05
2.58995e-05
2.40588e-05
2.53458e-05
4.39249e-05
7.87891e-05
0.000119011
0.000153224
0.000177804
0.000194404
0.000205227
0.000212154
0.000216556
0.000219338
0.000221062
0.000222061
0.000222519
0.000222519
0.000222059
0.000221059
0.000219335
0.000216553
0.000212151
0.000205223
0.0001944
0.000177799
0.000153217
0.000119
7.87813e-05
4.39241e-05
2.53436e-05
2.40602e-05
2.19599e-05
2.30325e-05
3.90585e-05
6.88821e-05
0.000106075
0.000139836
0.000164833
0.000182152
0.000193783
0.000201552
0.000206775
0.000210287
0.000212596
0.000213997
0.000214659
0.000214659
0.000213996
0.000212594
0.000210286
0.000206773
0.00020155
0.000193781
0.00018215
0.000164829
0.00013983
0.000106066
6.88755e-05
3.9056e-05
2.30306e-05
2.19611e-05
1.96574e-05
2.05483e-05
3.39793e-05
5.83373e-05
9.10451e-05
0.000122579
0.000146953
0.000164209
0.000176166
0.000184593
0.000190639
0.000194961
0.000197944
0.000199818
0.000200719
0.000200719
0.000199816
0.000197942
0.000194959
0.000190637
0.000184592
0.000176166
0.000164208
0.00014695
0.000122573
9.10402e-05
5.83344e-05
3.39777e-05
2.05471e-05
1.96581e-05
1.7144e-05
1.80963e-05
2.86309e-05
4.71357e-05
7.35754e-05
0.000100207
0.000122333
0.000138207
0.000149727
0.000158526
0.000165319
0.000170439
0.000174104
0.000176448
0.000177585
0.000177584
0.000176446
0.000174101
0.000170435
0.000165316
0.000158523
0.000149726
0.000138205
0.000122329
0.000100203
7.35726e-05
4.71346e-05
2.86283e-05
1.80967e-05
1.71444e-05
1.44255e-05
1.58746e-05
2.28109e-05
3.59429e-05
5.45399e-05
7.40151e-05
9.00939e-05
0.000102567
0.000112705
0.000121423
0.000128586
0.000134154
0.000138237
0.000140846
0.000142113
0.000142112
0.000140843
0.00013823
0.000134146
0.000128578
0.000121415
0.000112699
0.000102563
9.00904e-05
7.40133e-05
5.45416e-05
3.59454e-05
2.28097e-05
1.5875e-05
1.44259e-05
1.15663e-05
1.33933e-05
1.79009e-05
2.56977e-05
3.60079e-05
4.66616e-05
5.60936e-05
6.42838e-05
7.154e-05
7.80349e-05
8.3629e-05
8.81613e-05
9.15776e-05
9.3848e-05
9.49761e-05
9.49743e-05
9.38425e-05
9.15683e-05
8.81498e-05
8.36173e-05
7.8025e-05
7.15339e-05
6.42803e-05
5.60924e-05
4.66626e-05
3.60126e-05
2.57e-05
1.79008e-05
1.33937e-05
1.15666e-05
8.67932e-06
1.01779e-05
1.32262e-05
1.67068e-05
2.18685e-05
2.73154e-05
3.23398e-05
3.67327e-05
4.07318e-05
4.42953e-05
4.73082e-05
4.97614e-05
5.16316e-05
5.28839e-05
5.35054e-05
5.35051e-05
5.28827e-05
5.1628e-05
4.97566e-05
4.73032e-05
4.42923e-05
4.07297e-05
3.67318e-05
3.23402e-05
2.73169e-05
2.18704e-05
1.67077e-05
1.32264e-05
1.0178e-05
8.67953e-06
5.11432e-06
1.60665e-06
7.44336e-06
1.10134e-05
1.45949e-05
1.76113e-05
2.0213e-05
2.26168e-05
2.47052e-05
2.64873e-05
2.79601e-05
2.91275e-05
3.00017e-05
3.05856e-05
3.0878e-05
3.0878e-05
3.05855e-05
3.00014e-05
2.9127e-05
2.79594e-05
2.64867e-05
2.47042e-05
2.26157e-05
2.02119e-05
1.76104e-05
1.45946e-05
1.10136e-05
7.44395e-06
1.60676e-06
5.11447e-06
3.55701e-06
6.08182e-06
8.68902e-06
1.10674e-05
1.34475e-05
1.56971e-05
1.77688e-05
1.95416e-05
2.10763e-05
2.23992e-05
2.35193e-05
2.44295e-05
2.51158e-05
2.55745e-05
2.58042e-05
2.58042e-05
2.55746e-05
2.5116e-05
2.44298e-05
2.35197e-05
2.23993e-05
2.10765e-05
1.95417e-05
1.7769e-05
1.56973e-05
1.34478e-05
1.10678e-05
8.68941e-06
6.08218e-06
3.55718e-06
3.37651e-06
5.7398e-06
8.25308e-06
1.05673e-05
1.28893e-05
1.5083e-05
1.70983e-05
1.88364e-05
2.03598e-05
2.16784e-05
2.27787e-05
2.36602e-05
2.43242e-05
2.47685e-05
2.49912e-05
2.49913e-05
2.47687e-05
2.43245e-05
2.36606e-05
2.27792e-05
2.16791e-05
2.03605e-05
1.88371e-05
1.7099e-05
1.50837e-05
1.289e-05
1.0568e-05
8.25364e-06
5.7402e-06
3.37681e-06
4.89749e-06
2.56309e-06
1.07591e-05
1.60485e-05
2.11147e-05
2.55948e-05
2.94052e-05
3.23692e-05
3.46435e-05
3.63643e-05
3.76635e-05
3.86372e-05
3.93383e-05
3.97949e-05
4.00205e-05
4.00207e-05
3.97955e-05
3.93392e-05
3.86384e-05
3.76648e-05
3.63654e-05
3.46444e-05
3.23704e-05
2.94068e-05
2.55982e-05
2.11176e-05
1.605e-05
1.076e-05
2.5637e-06
4.89804e-06
8.30862e-06
1.31855e-05
1.73043e-05
2.10736e-05
2.40959e-05
2.72042e-05
3.01949e-05
3.30587e-05
3.57908e-05
3.82919e-05
4.04601e-05
4.22556e-05
4.36402e-05
4.4584e-05
4.50613e-05
4.50603e-05
4.45812e-05
4.36359e-05
4.22518e-05
4.04558e-05
3.82851e-05
3.5784e-05
3.30553e-05
3.01928e-05
2.72015e-05
2.40928e-05
2.10701e-05
1.73018e-05
1.31863e-05
8.30889e-06
1.10755e-05
1.8314e-05
2.3329e-05
2.48584e-05
2.86747e-05
3.49986e-05
4.16003e-05
4.7757e-05
5.3267e-05
5.79673e-05
6.18528e-05
6.50202e-05
6.7437e-05
6.90741e-05
6.99012e-05
6.99019e-05
6.90764e-05
6.74409e-05
6.50258e-05
6.18587e-05
5.79713e-05
5.32658e-05
4.77553e-05
4.15994e-05
3.49983e-05
2.86727e-05
2.48559e-05
2.33283e-05
1.83164e-05
1.10757e-05
1.37969e-05
2.22486e-05
2.64302e-05
2.95309e-05
3.87296e-05
5.06541e-05
6.19195e-05
7.1728e-05
7.98706e-05
8.67647e-05
9.2496e-05
9.71343e-05
0.000100631
0.000103079
0.00010435
0.00010435
0.000103078
0.000100633
9.71361e-05
9.24967e-05
8.6764e-05
7.98658e-05
7.17194e-05
6.19072e-05
5.06419e-05
3.87294e-05
2.95297e-05
2.64299e-05
2.22508e-05
1.37969e-05
1.64114e-05
2.56656e-05
2.86621e-05
3.58969e-05
5.07576e-05
6.85276e-05
8.57006e-05
0.000100913
0.000113067
0.000122565
0.00012998
0.000135651
0.000139704
0.000142333
0.000143642
0.000143642
0.000142333
0.000139703
0.000135647
0.000129974
0.000122557
0.000113056
0.000100899
8.5678e-05
6.85088e-05
5.07463e-05
3.58959e-05
2.86625e-05
2.56676e-05
1.64111e-05
1.88782e-05
2.82585e-05
3.10368e-05
4.35855e-05
6.3059e-05
8.61843e-05
0.000109574
0.000128568
0.000142524
0.000152786
0.00016039
0.000165966
0.000169872
0.000172351
0.000173559
0.000173558
0.000172351
0.000169871
0.000165963
0.000160386
0.000152781
0.000142518
0.000128559
0.00010956
8.61662e-05
6.30489e-05
4.3585e-05
3.10377e-05
2.82589e-05
1.88777e-05
2.11517e-05
3.03311e-05
3.41194e-05
5.10941e-05
7.48081e-05
0.000103204
0.000129611
0.000149814
0.000164421
0.000174802
0.000182166
0.000187342
0.000190855
0.000193036
0.00019408
0.00019408
0.000193035
0.000190854
0.00018734
0.000182164
0.0001748
0.000164418
0.00014981
0.000129605
0.000103198
7.48058e-05
5.1097e-05
3.41199e-05
3.03318e-05
2.1151e-05
2.31873e-05
3.20094e-05
3.75047e-05
5.74836e-05
8.51394e-05
0.000117733
0.000145114
0.000165499
0.000179975
0.000190032
0.000196938
0.000201617
0.000204686
0.00020654
0.000207414
0.000207414
0.00020654
0.000204686
0.000201616
0.000196938
0.000190032
0.000179975
0.000165498
0.000145113
0.000117735
8.51449e-05
5.74887e-05
3.7506e-05
3.20107e-05
2.31865e-05
2.49802e-05
3.33808e-05
4.0858e-05
6.34748e-05
9.50969e-05
0.00012965
0.000157024
0.000176957
0.000190873
0.000200348
0.00020668
0.000210831
0.000213463
0.000215007
0.00021572
0.00021572
0.000215007
0.000213463
0.000210831
0.000206681
0.000200349
0.000190875
0.00017696
0.000157028
0.000129655
9.51059e-05
6.34815e-05
4.08601e-05
3.33827e-05
2.49792e-05
2.65103e-05
3.45043e-05
4.39307e-05
6.87628e-05
0.00010375
0.000138945
0.000165994
0.000185245
0.000198436
0.000207233
0.000212963
0.000216604
0.000218837
0.000220106
0.000220679
0.000220679
0.000220107
0.000218838
0.000216606
0.000212966
0.000207236
0.00019844
0.00018525
0.000166001
0.000138954
0.000103763
6.87707e-05
4.39335e-05
3.45068e-05
2.6509e-05
2.77587e-05
3.54097e-05
4.64977e-05
7.31174e-05
0.000110647
0.000146018
0.000172578
0.000191123
0.000203597
0.000211745
0.000216921
0.000220112
0.000222003
0.000223044
0.000223503
0.000223503
0.000223045
0.000222005
0.000220115
0.000216925
0.00021175
0.000203603
0.00019113
0.000172587
0.000146029
0.000110663
7.31264e-05
4.65013e-05
3.54129e-05
2.77573e-05
2.87096e-05
3.61036e-05
4.84312e-05
7.63797e-05
0.000115732
0.000151104
0.000177193
0.000195127
0.000206995
0.000214603
0.000219327
0.000222159
0.000223785
0.000224651
0.000225023
0.000225023
0.000224652
0.000223788
0.000222163
0.000219332
0.00021461
0.000207003
0.000195136
0.000177204
0.000151119
0.000115751
7.63912e-05
4.84352e-05
3.61076e-05
2.8708e-05
2.93511e-05
3.65853e-05
4.97605e-05
7.85363e-05
0.00011906
0.000154388
0.000180122
0.000197615
0.000209052
0.000216278
0.000220685
0.000223269
0.000224714
0.000225462
0.000225776
0.000225777
0.000225464
0.000224717
0.000223274
0.000220691
0.000216286
0.000209061
0.000197626
0.000180135
0.000154405
0.00011908
7.85493e-05
4.9765e-05
3.65905e-05
2.93494e-05
2.96748e-05
3.68666e-05
5.04427e-05
7.96181e-05
0.000120702
0.000155997
0.000181543
0.000198806
0.000210019
0.000217048
0.000221292
0.00022375
0.000225104
0.000225793
0.000226078
0.000226079
0.000225795
0.000225107
0.000223756
0.0002213
0.000217057
0.00021003
0.000198819
0.000181557
0.000156014
0.000120725
7.96325e-05
5.04476e-05
3.68732e-05
2.96731e-05
2.96751e-05
3.68649e-05
5.04421e-05
7.96145e-05
0.000120698
0.000155993
0.000181539
0.000198803
0.000210016
0.000217044
0.000221288
0.000223746
0.000225099
0.000225788
0.000226073
0.000226074
0.00022579
0.000225103
0.000223752
0.000221296
0.000217054
0.000210027
0.000198816
0.000181555
0.000156012
0.000120722
7.96301e-05
5.04471e-05
3.68716e-05
2.96734e-05
2.93519e-05
3.65813e-05
4.97586e-05
7.85257e-05
0.000119047
0.000154377
0.000180111
0.000197604
0.000209041
0.000216266
0.000220672
0.000223256
0.0002247
0.000225448
0.000225761
0.000225762
0.00022545
0.000224704
0.000223262
0.00022068
0.000216276
0.000209053
0.000197618
0.000180127
0.000154396
0.000119071
7.85419e-05
4.97635e-05
3.65881e-05
2.93502e-05
2.87111e-05
3.60974e-05
4.84279e-05
7.63623e-05
0.000115711
0.000151086
0.000177176
0.00019511
0.000206978
0.000214585
0.000219307
0.000222138
0.000223762
0.000224627
0.000224999
0.000225
0.00022463
0.000223766
0.000222144
0.000219315
0.000214594
0.000206989
0.000195123
0.000177192
0.000151105
0.000115736
7.63788e-05
4.84326e-05
3.6104e-05
2.87095e-05
2.77606e-05
3.54014e-05
4.64925e-05
7.30935e-05
0.00011062
0.000145995
0.000172557
0.000191101
0.000203574
0.00021172
0.000216894
0.000220083
0.000221973
0.000223012
0.00022347
0.000223471
0.000223015
0.000221976
0.000220089
0.000216901
0.000211729
0.000203585
0.000191114
0.000172572
0.000146013
0.000110643
7.31086e-05
4.64969e-05
3.54083e-05
2.77592e-05
2.65126e-05
3.44941e-05
4.39206e-05
6.87334e-05
0.000103718
0.000138919
0.00016597
0.00018522
0.000198409
0.000207204
0.000212931
0.000216569
0.000218799
0.000220067
0.000220639
0.00022064
0.000220069
0.000218802
0.000216574
0.000212937
0.000207212
0.000198419
0.000185232
0.000165984
0.000138935
0.000103739
6.87475e-05
4.3923e-05
3.45011e-05
2.65114e-05
2.49828e-05
3.33693e-05
4.08462e-05
6.34444e-05
9.50621e-05
0.00012962
0.000156998
0.000176931
0.000190844
0.000200315
0.000206643
0.00021079
0.000213419
0.000214962
0.000215674
0.000215675
0.000214963
0.000213422
0.000210794
0.000206648
0.000200322
0.000190853
0.000176941
0.00015701
0.000129636
9.50806e-05
6.34576e-05
4.08495e-05
3.33763e-05
2.4982e-05
2.319e-05
3.19972e-05
3.74941e-05
5.74559e-05
8.50947e-05
0.000117699
0.000145087
0.000165472
0.000179945
0.000189996
0.000196897
0.000201571
0.000204637
0.00020649
0.000207362
0.000207363
0.000206491
0.000204639
0.000201574
0.000196901