/*--------------------------------*- C++ -*----------------------------------*\
| =========                 |                                                 |
| \\      /  F ield         | OpenFOAM: The Open Source CFD Toolbox           |
|  \\    /   O peration     | Version:  2312                                  |
|   \\  /    A nd           | Website:  www.openfoam.com                      |
|    \\/     M anipulation  |                                                 |
\*---------------------------------------------------------------------------*/
FoamFile
{
    version     2.0;
    format      ascii;
    arch        "LSB;label=32;scalar=64";
    class       surfaceScalarField;
    location    "450";
    object      phi;
}
// * * * * * * * * * * * * * * * * * * * * * * * * * * * * * * * * * * * * * //

dimensions      [1 0 -1 0 0 0 0];

oriented        oriented;

internalField   nonuniform List<scalar> 
78300
(
1.40805e-05
0.00021502
0.00753029
0.00293935
0.00116259
0.0097502
0.00306584
0.00451669
0.0149942
0.00343951
0.00514305
0.0196082
0.00371732
0.00579824
0.0241942
0.00386672
0.006365
0.02853
0.00387373
0.00686734
0.0325464
0.00373867
0.00727911
0.0362308
0.0034619
0.00760128
0.03956
0.00306255
0.00784644
0.0424831
0.00256448
0.00803117
0.0449617
0.00199054
0.00816734
0.0469706
0.00136134
0.00826308
0.0484922
0.000696106
0.00832378
0.0495138
1.2983e-05
0.00835329
0.0500268
-0.000670354
0.00835347
0.0500268
-0.00133627
0.00832436
0.0495139
-0.00196658
0.00826402
0.0484923
-0.00254219
0.00816878
0.0469708
-0.00304245
0.00803308
0.044962
-0.0034447
0.00784901
0.0424835
-0.00372511
0.00760459
0.0395604
-0.00386463
0.00728326
0.0362311
-0.00386214
0.00687161
0.0325466
-0.00371811
0.00637025
0.0285301
-0.00344259
0.00580056
0.0241941
-0.00306999
0.00514429
0.0196081
-0.00294525
0.00451871
0.0149939
-5.76521e-06
0.00114854
0.00975003
0.000223634
0.00752999
0.00310988
0.00442517
0.00970167
0.00541634
0.003885
0.0178608
0.00653947
0.00700633
0.0248753
0.00689501
0.00788403
0.0306892
0.00700741
0.00849053
0.0359483
0.00693142
0.00898878
0.0408143
0.0066929
0.00940908
0.0452841
0.00628696
0.0097599
0.0493302
0.00571367
0.0100374
0.0529309
0.00498687
0.0102457
0.056062
0.00413417
0.0103952
0.0586995
0.00318486
0.010499
0.0608263
0.00216651
0.0105676
0.0624309
0.00110338
0.0106091
0.0635051
1.82255e-05
0.0106288
0.0640436
-0.00106729
0.0106292
0.0640437
-0.00213122
0.0106104
0.0635053
-0.00315108
0.0105698
0.0624311
-0.00410216
0.010502
0.0608266
-0.00495728
0.0103992
0.0586998
-0.00568655
0.0102504
0.0560624
-0.00626259
0.010043
0.0529313
-0.00667079
0.00976594
0.0493305
-0.00691199
0.00941577
0.0452844
-0.00698862
0.00899464
0.0408143
-0.00687841
0.00849539
0.0359479
-0.00652254
0.00788559
0.0306885
-0.00539527
0.00700493
0.0248746
-0.00310012
0.00388287
0.0178602
0.00444402
0.0097012
0.0068101
0.00399076
0.0198909
0.0094798
0.00588356
0.0272585
0.0103392
0.00841205
0.0350621
0.0101718
0.00917359
0.0413154
0.00966966
0.00958036
0.0466419
0.00905916
0.0098895
0.051386
0.00837721
0.0101623
0.0556814
0.00761421
0.0104088
0.0595502
0.00675579
0.01062
0.0629814
0.00579909
0.0107879
0.0659577
0.00475275
0.0109118
0.0684622
0.00363331
0.0109977
0.0704812
0.00245899
0.0110535
0.0720043
0.0012486
0.0110865
0.0730238
2.0233e-05
0.0111019
0.0735349
-0.00120838
0.0111026
0.0735349
-0.00241951
0.0110884
0.0730239
-0.00359497
0.0110567
0.0720044
-0.00471616
0.0110021
0.0704815
-0.00576431
0.0109174
0.0684625
-0.00672322
0.0107945
0.065958
-0.00758368
0.0106275
0.0629816
-0.00834902
0.0104171
0.0595502
-0.00903298
0.0101712
0.0556812
-0.009646
0.00989847
0.0513854
-0.0101505
0.00958854
0.0466409
-0.0103226
0.00918117
0.0413142
-0.00946945
0.00841785
0.0350611
-0.00680764
0.00589001
0.0272578
0.00401237
0.0198906
0.00694844
0.00451121
0.0279034
0.0101003
0.00673846
0.0368235
0.0110571
0.00892125
0.0445718
0.0109384
0.00953868
0.0507197
0.0103627
0.00984286
0.0559007
0.00961184
0.0100481
0.0604684
0.00877875
0.0102279
0.0645753
0.00788393
0.0104005
0.0682638
0.0069253
0.0105611
0.071532
0.00590009
0.0106984
0.0743662
0.00481048
0.0108064
0.0767515
0.00366473
0.0108845
0.0786752
0.00247506
0.0109367
0.0801269
0.00125548
0.0109679
0.0810991
2.06026e-05
0.0109828
0.0815864
-0.00121431
0.0109835
0.0815864
-0.00243462
0.0109705
0.0810991
-0.00362519
0.0109407
0.080127
-0.00477226
0.0108902
0.0786753
-0.00586344
0.0108135
0.0767516
-0.00689052
0.010707
0.0743662
-0.00785107
0.0105708
0.0715318
-0.00874807
0.0104115
0.0682633
-0.00958335
0.0102398
0.0645745
-0.0103372
0.0100613
0.0604672
-0.0109165
0.00985609
0.0558992
-0.0110398
0.00955242
0.0507182
-0.0100904
0.00893546
0.0445708
-0.00694648
0.00675326
0.036823
0.0045349
0.0279033
0.0078978
0.00474907
0.036083
0.0108295
0.00724757
0.0460413
0.0114945
0.00904862
0.0537121
0.0112544
0.00949972
0.0595369
0.0106263
0.00971242
0.0644739
0.00982105
0.00984957
0.068856
0.00892399
0.00996993
0.0728
0.00796545
0.0100925
0.0763389
0.0069552
0.010214
0.0794724
0.00589501
0.0103252
0.0821892
0.00478719
0.0104178
0.084476
0.0036367
0.0104884
0.0863207
0.00245154
0.0105375
0.0877132
0.00124216
0.0105679
0.0886458
2.03608e-05
0.0105826
0.0891134
-0.00120172
0.0105836
0.0891134
-0.00241146
0.0105708
0.0886457
-0.00359744
0.0105424
0.0877131
-0.00474895
0.0104952
0.0863206
-0.00585812
0.0104264
0.0844759
-0.00691974
0.0103355
0.0821889
-0.00793197
0.0102261
0.0794719
-0.00889248
0.0101062
0.0763382
-0.00979227
0.00998558
0.072799
-0.0106003
0.00986672
0.0688547
-0.0112327
0.00973137
0.0644726
-0.0114781
0.00951982
0.0595358
-0.0108204
0.00907053
0.0537117
-0.00789632
0.00726978
0.0460415
0.00477393
0.0360833
0.00857641
0.00480344
0.0440579
0.0113417
0.00737516
0.0548748
0.0117824
0.00887566
0.0623469
0.0114191
0.00920417
0.0678608
0.0107339
0.00934379
0.0725582
0.00989343
0.00942761
0.0767598
0.00896355
0.00950465
0.0805537
0.00797396
0.00958942
0.0839599
0.00693741
0.00967978
0.0869754
0.00585995
0.00976725
0.0895895
0.00474493
0.00984425
0.0917898
0.00359642
0.00990587
0.0935648
0.00242055
0.00995051
0.0949047
0.00122511
0.00997917
0.0958022
1.95302e-05
0.00999339
0.0962522
-0.00118618
0.00999452
0.0962522
-0.00238193
0.00998245
0.0958022
-0.0035584
0.00995608
0.0949046
-0.00470767
0.00991354
0.0935646
-0.00582373
0.00985413
0.0917896
-0.00690261
0.00977929
0.0895891
-0.00794072
0.00969393
0.0869749
-0.00893254
0.00960598
0.0839592
-0.00986485
0.00952351
0.0805529
-0.0107088
0.00944911
0.076759
-0.0113981
0.00936757
0.0725575
-0.0117672
0.00923044
0.0678605
-0.0113332
0.00890387
0.0623472
-0.00857493
0.00740345
0.0548757
0.0048291
0.0440585
0.00907595
0.00469268
0.051705
0.0116584
0.00720046
0.0631693
0.0119459
0.00844849
0.0703996
0.0115014
0.0086945
0.0756468
0.0107768
0.00878286
0.0801356
0.00991263
0.00882916
0.0841714
0.00896445
0.00887408
0.0878259
0.00795859
0.00893009
0.0911102
0.00690909
0.00899517
0.0940183
0.00582319
0.00906238
0.0965393
0.00470565
0.00912454
0.0986613
0.00356068
0.00917654
0.100373
0.00239326
0.00921578
0.101666
0.00120998
0.00924172
0.102531
1.82991e-05
0.00925502
0.102965
-0.00117341
0.0092562
0.102965
-0.00235698
0.00924533
0.102531
-0.00352469
0.00922173
0.101665
-0.0046703
0.00918497
0.100373
-0.00578863
0.00913537
0.0986611
-0.00687564
0.00907575
0.0965391
-0.00792676
0.0090112
0.094018
-0.00893457
0.0089489
0.0911099
-0.00988542
0.00889588
0.0878257
-0.0107528
0.00885411
0.0841713
-0.0114819
0.00881095
0.0801357
-0.0119318
0.00872563
0.0756473
-0.0116506
0.00848192
0.0704007
-0.00907405
0.00723321
0.0631708
0.00471918
0.051706
0.00943686
0.00443453
0.0588787
0.0118483
0.00677552
0.0708197
0.0120226
0.00780748
0.0778053
0.0115279
0.00799589
0.0828224
0.0107804
0.0080519
0.087132
0.00990406
0.00807448
0.0910202
0.00894715
0.00809826
0.0945476
0.0079342
0.00813385
0.0977202
0.00687919
0.00817979
0.10053
0.00579034
0.0082305
0.102967
0.00467304
0.00827977
0.105018
0.00353181
0.00832266
0.106673
0.00237149
0.00835614
0.107923
0.00119759
0.00837898
0.10876
1.66782e-05
0.00839094
0.109179
-0.00116427
0.00839216
0.109179
-0.00233825
0.00838267
0.10876
-0.00349885
0.00836235
0.107923
-0.0046404
0.0083314
0.106673
-0.00575833
0.00829121
0.105018
-0.00684813
0.00824475
0.102967
-0.00790451
0.00819707
0.100531
-0.00891935
0.00815433
0.0977204
-0.00987885
0.00812228
0.0945479
-0.0107584
0.00810203
0.0910208
-0.01151
0.00808318
0.087133
-0.0120096
0.00803049
0.0828238
-0.0118409
0.00784467
0.0778072
-0.00943464
0.00681147
0.0708217
0.00446189
0.05888
0.00970504
0.00404194
0.0654397
0.0119585
0.00614471
0.0777361
0.0120428
0.00698789
0.0844911
0.0115141
0.00713354
0.0893094
0.0107544
0.00717013
0.0934647
0.00987376
0.00717976
0.0972235
0.00891523
0.00719173
0.100637
0.00790182
0.00721436
0.10371
0.006847
0.00724706
0.106433
0.00575929
0.00728542
0.108794
0.00464458
0.00732432
0.110782
0.00350775
0.00735935
0.112386
0.00235352
0.00738753
0.113598
0.00118722
0.00740718
0.114409
1.4674e-05
0.00741771
0.114816
-0.0011579
0.00741893
0.114816
-0.00232422
0.00741083
0.114409
-0.0034785
0.00739366
0.113598
-0.00461556
0.00736812
0.112386
-0.00573067
0.00733588
0.110782
-0.00681914
0.00730001
0.108794
-0.00787516
0.00726495
0.106433
-0.00889034
0.00723582
0.103711
-0.00985115
0.00721697
0.100639
-0.0107349
0.00720899
0.0972249
-0.0114983
0.00720329
0.0934665
-0.0120313
0.00717031
0.0893116
-0.0119516
0.00702715
0.0844936
-0.0097026
0.00618272
0.0777385
0.00407011
0.0654413
0.00990234
0.00353233
0.0712728
0.0120158
0.00534449
0.083834
0.0120276
0.00601936
0.0903821
0.0114733
0.00613205
0.0950317
0.0107064
0.00615762
0.0990551
0.00982568
0.00616195
0.102702
0.00887034
0.00616872
0.106017
0.00786106
0.00618458
0.109002
0.00681057
0.00620917
0.111649
0.00572727
0.00623914
0.113944
0.00461728
0.00627041
0.115877
0.0034857
0.00629925
0.117438
0.00233749
0.00632292
0.118616
0.00117782
0.00633977
0.119405
1.2309e-05
0.00634891
0.119801
-0.00115316
0.00635004
0.119801
-0.00231277
0.0063432
0.119406
-0.00346095
0.00632876
0.118616
-0.00459257
0.00630765
0.117438
-0.00570281
0.00628164
0.115878
-0.00678669
0.00625351
0.113945
-0.00783815
0.00622697
0.11165
-0.0088489
0.00620615
0.109004
-0.0098063
0.00619429
0.106019
-0.0106896
0.00619167
0.102704
-0.0114597
0.00619139
0.0990577
-0.0120177
0.00616955
0.0950346
-0.0120097
0.00605939
0.0903852
-0.00989992
0.00538332
0.0838369
0.00356104
0.0712747
0.010045
0.00292368
0.0762824
0.0120388
0.00440693
0.0890382
0.0119919
0.00492925
0.0954086
0.0114168
0.00501534
0.0999184
0.0106452
0.00503479
0.103832
0.00976659
0.00503896
0.107384
0.0088166
0.00504531
0.110615
0.00781395
0.00505888
0.113527
0.00677023
0.00507939
0.116108
0.0056934
0.00510433
0.118349
0.00458962
0.00513045
0.120236
0.00346414
0.0051548
0.121759
0.00232209
0.00517499
0.122909
0.00116876
0.00518951
0.12368
9.71534e-06
0.00519744
0.124067
-0.00114929
0.00519846
0.124067
-0.0023025
0.00519259
0.12368
-0.00344441
0.00518029
0.12291
-0.00456981
0.00516252
0.121759
-0.00567369
0.00514093
0.120237
-0.00675084
0.00511788
0.11835
-0.00779529
0.00509643
0.11611
-0.00879908
0.00507971
0.113529
-0.00975071
0.00507022
0.110618
-0.0106314
0.00506805
0.107387
-0.0114056
0.00506801
0.103835
-0.0119836
0.00505223
0.099922
-0.0120336
0.00496876
0.0954122
-0.0100429
0.00444556
0.0890414
0.00295247
0.0762845
0.0101457
0.00223502
0.0803877
0.0120415
0.00336155
0.0932836
0.0119481
0.00374318
0.0995085
0.0113563
0.00380705
0.103907
0.0105805
0.00382379
0.107732
0.00970426
0.00383053
0.111207
0.00876007
0.00383938
0.114371
0.00776466
0.00385364
0.117223
0.00672847
0.00387293
0.119752
0.00565893
0.00389532
0.121947
0.00456196
0.00391835
0.123797
0.00344294
0.00393963
0.12529
0.00230709
0.00395729
0.126418
0.00115988
0.00397
0.127174
6.94278e-06
0.00397695
0.127553
-0.00114592
0.0039778
0.127554
-0.00229297
0.00397263
0.127175
-0.00342858
0.00396185
0.126419
-0.0045474
0.00394639
0.125291
-0.00564427
0.00392765
0.123798
-0.00671393
0.00390759
0.121949
-0.0077505
0.00388855
0.119754
-0.00874668
0.00387298
0.117225
-0.00969203
0.00386272
0.114374
-0.0105698
0.003858
0.11121
-0.0113475
0.00385529
0.107735
-0.0119417
0.00384223
0.103911
-0.0120375
0.00378104
0.0995126
-0.0101439
0.00339893
0.0932871
0.00226334
0.08039
0.0102134
0.00148632
0.0835236
0.0120342
0.00223658
0.0965163
0.0119058
0.00248614
0.10263
0.0113007
0.00253101
0.106945
0.0105212
0.00254701
0.110703
0.0096468
0.00255777
0.114121
0.00870748
0.0025706
0.117233
0.00771851
0.0025872
0.120039
0.00668924
0.00260702
0.122529
0.0056265
0.0026285
0.124691
0.00453599
0.00264979
0.126512
0.00342304
0.0026691
0.127983
0.00229303
0.00268495
0.129094
0.00115148
0.00269627
0.129839
4.14353e-06
0.00270242
0.130212
-0.00114312
0.0027031
0.130212
-0.00228444
0.00269837
0.129839
-0.00341415
0.00268865
0.129095
-0.00452676
0.00267469
0.127984
-0.00561699
0.00265765
0.126514
-0.00667958
0.00263906
0.124693
-0.00770893
0.0026207
0.122531
-0.00869825
0.00260441
0.120042
-0.00963824
0.00259162
0.117236
-0.0105137
0.00258274
0.114124
-0.0112945
0.00257589
0.110707
-0.0119012
0.00256349
0.106949
-0.0120313
0.00252137
0.102635
-0.0102121
0.00227182
0.09652
0.00151356
0.0835259
0.0102547
0.000698171
0.0856411
0.0120241
0.00105976
0.0986947
0.0118718
0.00118278
0.104734
0.0112572
0.00121074
0.108992
0.0104747
0.0012271
0.112706
0.00960106
0.00124247
0.116085
0.008665
0.00125983
0.119163
0.00768064
0.00127946
0.121939
0.00665659
0.0013006
0.124402
0.00559917
0.00132201
0.126541
0.00451387
0.00134232
0.128344
0.00340595
0.00136024
0.129799
0.0022808
0.0013747
0.130899
0.00114403
0.00138491
0.131636
1.43335e-06
0.00139036
0.132006
-0.00114107
0.00139085
0.132006
-0.00227758
0.00138644
0.131636
-0.00340234
0.00137747
0.1309
-0.0045098
0.00136454
0.1298
-0.00559465
0.00134855
0.128345
-0.00665167
0.0013306
0.126543
-0.00767547
0.001312
0.124404
-0.00865977
0.00129406
0.121941
-0.009596
0.00127794
0.119166
-0.0104701
0.00126428
0.116088
-0.0112533
0.00125262
0.11271
-0.0118689
0.00123973
0.108997
-0.0120223
0.00121459
0.104738
-0.0102538
0.00109209
0.0986986
0.000723815
0.0856435
0.0102734
-0.00010853
0.0867076
0.0120158
-0.000141574
0.0997908
0.0118507
-0.000142431
0.105792
0.0112304
-0.000130414
0.110022
0.0104457
-0.000113326
0.113713
0.00957187
-9.33067e-05
0.117073
0.00863713
-7.14661e-05
0.120134
0.00765506
-4.87766e-05
0.122895
0.00663385
-2.62053e-05
0.125345
0.00557959
-4.7197e-06
0.127473
0.00449757
1.47698e-05
0.129266
0.00339303
3.14285e-05
0.130714
0.00227131
4.4579e-05
0.131808
0.00113802
5.37099e-05
0.132541
-1.07151e-06
5.84982e-05
0.132909
-0.00114005
5.87991e-05
0.132909
-0.00227305
5.46861e-05
0.132541
-0.0033943
4.64144e-05
0.131808
-0.00449826
3.44176e-05
0.130715
-0.00557963
1.9302e-05
0.129267
-0.00663328
1.79195e-06
0.127474
-0.00765392
-1.72872e-05
0.125347
-0.00863556
-3.70434e-05
0.122897
-0.00957003
-5.65896e-05
0.120137
-0.0104438
-7.50722e-05
0.117077
-0.0112287
-9.16672e-05
0.113717
-0.0118495
-0.000105465
0.110027
-0.0120151
-0.000114656
0.105796
-0.010273
-0.000112765
0.0997947
-8.4954e-05
0.0867101
0.0102717
-0.000913154
0.0867072
0.012012
-0.00134024
0.0997903
0.011845
-0.00146504
0.105791
0.011223
-0.0014692
0.110022
0.0104368
-0.00145169
0.113713
0.00956186
-0.0014274
0.117073
0.00862641
-0.00140152
0.120134
0.00764405
-0.00137624
0.122894
0.00662301
-0.0013527
0.125345
0.00556935
-0.00133157
0.127472
0.00448837
-0.00131331
0.129265
0.00338522
-0.00129825
0.130713
0.0022652
-0.00128667
0.131807
0.0011338
-0.00127878
0.13254
-3.26144e-06
-0.00127475
0.132908
-0.00114021
-0.00127462
0.132908
-0.00227126
-0.00127833
0.13254
-0.00339074
-0.00128571
0.131807
-0.00449319
-0.00129651
0.130714
-0.00557338
-0.00131041
0.129266
-0.00662619
-0.00132711
0.127473
-0.0076464
-0.00134625
0.125346
-0.008628
-0.00136742
0.122897
-0.00956281
-0.00138999
0.120136
-0.0104372
-0.00141292
0.117076
-0.0112232
-0.00143413
0.113717
-0.0118451
-0.00144858
0.110026
-0.0120122
-0.00144165
0.105796
-0.0102718
-0.00131536
0.099794
-0.000892051
0.0867097
0.0102496
-0.00169512
0.0856399
0.0120127
-0.00250916
0.0986931
0.0118548
-0.00276071
0.104732
0.0112351
-0.00278247
0.10899
0.0104483
-0.00276552
0.112704
0.0095714
-0.00273775
0.116083
0.00863321
-0.00270864
0.119161
0.00764801
-0.00268168
0.121937
0.00662445
-0.00265818
0.124401
0.00556885
-0.00263843
0.12654
0.00448659
-0.00262232
0.128342
0.00338279
-0.00260963
0.129798
0.00226266
-0.00260022
0.130897
0.00113153
-0.00259397
0.131634
-5.07345e-06
-0.00259088
0.132004
-0.00114154
-0.00259089
0.132004
-0.00227228
-0.00259397
0.131634
-0.00339179
-0.00260003
0.130898
-0.00449478
-0.00260899
0.129798
-0.00557609
-0.0026209
0.128343
-0.00663067
-0.00263584
0.126541
-0.00765318
-0.00265405
0.124402
-0.00863736
-0.00267563
0.121939
-0.0095746
-0.00270034
0.119164
-0.0104507
-0.00272695
0.116086
-0.0112368
-0.00275202
0.112707
-0.0118561
-0.00276622
0.108994
-0.0120136
-0.00274181
0.104736
-0.01025
-0.00248841
0.0986967
-0.0016768
0.0856423
0.0102052
-0.00243379
0.0835217
0.0120157
-0.00362129
0.0965137
0.011878
-0.00400527
0.102627
0.0112647
-0.00404714
0.106941
0.0104783
-0.00403246
0.1107
0.00959852
-0.00400251
0.114118
0.00865575
-0.00397148
0.117231
0.00766541
-0.00394438
0.120037
0.00663694
-0.00392254
0.122527
0.00557714
-0.00390578
0.124689
0.00449157
-0.00389327
0.12651
0.00338535
-0.00388419
0.12798
0.00226347
-0.00387783
0.129091
0.00113112
-0.00387383
0.129836
-6.45844e-06
-0.00387193
0.130209
-0.00114388
-0.00387207
0.130209
-0.0022758
-0.00387418
0.129836
-0.00339697
-0.00387828
0.129091
-0.00450229
-0.00388446
0.12798
-0.00558678
-0.00389309
0.12651
-0.00664541
-0.00390479
0.124689
-0.00767264
-0.00392043
0.122528
-0.00866177
-0.00394078
0.120038
-0.00960336
-0.00396611
0.117233
-0.0104821
-0.00399509
0.11412
-0.0112675
-0.00402278
0.110703
-0.0118802
-0.00403505
0.106945
-0.0120172
-0.00399071
0.102631
-0.0102058
-0.00360465
0.096517
-0.0024184
0.0835241
0.0101346
-0.00310892
0.0803853
0.0120165
-0.00464934
0.0932802
0.0119104
-0.00517452
0.0995043
0.0113075
-0.00524017
0.103903
0.0105224
-0.0052303
0.107728
0.00963901
-0.00520025
0.111204
0.0086902
-0.00516947
0.114368
0.00769296
-0.00514456
0.117219
0.00665785
-0.00512682
0.119749
0.00559225
-0.00511536
0.121944
0.00450193
-0.00510846
0.123794
0.00339194
-0.00510456
0.125287
0.00226713
-0.00510245
0.126414
0.00113233
-0.00510138
0.12717
-7.3986e-06
-0.00510104
0.127549
-0.00114697
-0.00510127
0.127549
-0.00228127
-0.00510202
0.12717
-0.00340533
-0.00510337
0.126414
-0.00451431
-0.00510555
0.125286
-0.00560344
-0.00510926
0.123793
-0.00666774
-0.00511565
0.121944
-0.00770149
-0.00512634
0.119749
-0.00869734
-0.00514301
0.11722
-0.00964484
-0.00516657
0.114369
-0.010527
-0.00519576
0.111205
-0.011311
-0.00522396
0.10773
-0.0119131
-0.00523183
0.103905
-0.0120182
-0.00516395
0.0995075
-0.0101353
-0.00463656
0.0932831
-0.00309643
0.0803874
0.0100315
-0.00370109
0.0762795
0.012008
-0.00556567
0.0890342
0.0119455
-0.00624412
0.0954036
0.0113569
-0.0063384
0.0999135
0.0105739
-0.00633716
0.103827
0.00968661
-0.00631032
0.10738
0.008731
-0.00628323
0.110611
0.00772612
-0.00626405
0.113523
0.00668368
-0.00625381
0.116104
0.00561164
-0.00625063
0.118344
0.00451597
-0.0062519
0.120231
0.00340155
-0.00625508
0.121754
0.002273
-0.00625851
0.122904
0.00113491
-0.00626117
0.123674
-7.90887e-06
-0.00626274
0.124061
-0.00115057
-0.00626301
0.124061
-0.00228813
-0.00626202
0.123674
-0.00341586
-0.00625974
0.122903
-0.00452917
-0.00625658
0.121753
-0.00562359
-0.00625337
0.12023
-0.0066942
-0.00625189
0.118344
-0.00773517
-0.00625454
0.116104
-0.00873858
-0.00626407
0.113523
-0.00969276
-0.00628229
0.110612
-0.0105788
-0.00630816
0.107381
-0.0113606
-0.0063336
0.103829
-0.0119482
-0.00633317
0.0999157
-0.0120098
-0.00623699
0.0954061
-0.0100322
-0.00555629
0.0890366
-0.00369127
0.0762814
0.00988681
-0.00419189
0.0712695
0.0119804
-0.00634159
0.0838296
0.0119742
-0.00718919
0.0903767
0.0114041
-0.00731883
0.0950263
0.0106243
-0.00733165
0.0990501
0.00973361
-0.00731347
0.102697
0.00877186
-0.00729525
0.106013
0.00775999
-0.00728661
0.108998
0.00671093
-0.00728826
0.111644
0.00563309
-0.00729715
0.113939
0.00453236
-0.00730939
0.115872
0.00341351
-0.00732172
0.117431
0.00228082
-0.00733196
0.118609
0.00113875
-0.0073391
0.119398
-8.05271e-06
-0.00734284
0.119794
-0.00115464
-0.00734317
0.119794
-0.00229618
-0.00734005
0.119398
-0.00342798
-0.00733342
0.118609
-0.00454571
-0.00732351
0.117431
-0.00564506
-0.00731132
0.115871
-0.00672145
-0.00729899
0.113938
-0.00776897
-0.00728984
0.111643
-0.00877929
-0.00728774
0.108997
-0.00973956
-0.00729574
0.106012
-0.0106289
-0.00731307
0.102698
-0.0114076
-0.00733016
0.099051
-0.0119766
-0.00731605
0.0950278
-0.0119819
-0.0071848
0.0903785
-0.00988746
-0.00633494
0.0838315
-0.00418434
0.0712712
0.00968821
-0.00456412
0.0654362
0.0119196
-0.00694573
0.0777315
0.011984
-0.00798339
0.0844855
0.0114382
-0.00815844
0.0893039
0.0106642
-0.00819397
0.0934595
0.0097726
-0.00819234
0.0972185
0.00880701
-0.00818979
0.100633
0.00779068
-0.00819802
0.103705
0.00673733
-0.00821691
0.106427
0.00565553
-0.00824203
0.108788
0.00455101
-0.00826829
0.110775
0.00342812
-0.00829162
0.112379
0.00229101
-0.00830975
0.11359
0.00114407
-0.00832183
0.114401
-7.84535e-06
-0.0083279
0.114807
-0.00115956
-0.00832827
0.114807
-0.00230595
-0.0083228
0.1144
-0.00344216
-0.00831129
0.113589
-0.00456389
-0.00829353
0.112378
-0.00566706
-0.00827041
0.110774
-0.00674735
-0.0082442
0.108787
-0.00779913
-0.00821898
0.106426
-0.00881387
-0.00819986
0.103704
-0.00977797
-0.0081912
0.100632
-0.0106682
-0.00819312
0.0972184
-0.011441
-0.00819394
0.0934598
-0.011986
-0.00815734
0.0893047
-0.0119208
-0.00798094
0.0844867
-0.00968859
-0.00694114
0.0777328
-0.00455826
0.0654375
0.00941956
-0.00480129
0.058875
0.0118077
-0.00734294
0.0708153
0.0119607
-0.00859782
0.0778
0.0114476
-0.00883347
0.0828172
0.010685
-0.00890477
0.087127
0.00979695
-0.00893044
0.0910153
0.00883237
-0.00895284
0.0945425
0.00781619
-0.00898547
0.0977146
0.00676264
-0.00902757
0.100524
0.00568001
-0.0090732
0.10296
0.00457346
-0.00911608
0.10501
0.00344709
-0.00915187
0.106665
0.00230491
-0.00917837
0.107913
0.00115161
-0.00919544
0.10875
-7.338e-06
-0.00920384
0.109169
-0.00116615
-0.00920415
0.109169
-0.00231889
-0.00919642
0.108749
-0.00346023
-0.00917986
0.107912
-0.00458546
-0.00915377
0.106663
-0.00569068
-0.00911822
0.105009
-0.00677185
-0.00907543
0.102959
-0.00782384
-0.00902985
0.100523
-0.00883847
-0.00898769
0.0977135
-0.00980155
-0.00895481
0.0945415
-0.0106882
-0.00893199
0.0910147
-0.0114498
-0.00890558
0.0871268
-0.0119619
-0.00883355
0.0828174
-0.0118083
-0.00859654
0.0778006
-0.00941954
-0.00733967
0.070816
-0.00479639
0.058876
0.00905912
-0.00489164
0.0517014
0.0116176
-0.00748982
0.0631655
0.0118831
-0.00899845
0.0703951
0.0114196
-0.00931966
0.0756423
0.0106789
-0.00944517
0.0801312
0.00980255
-0.00951206
0.0841668
0.00884614
-0.00957007
0.0878208
0.00783679
-0.00963546
0.0911044
0.00678866
-0.00970683
0.0940116
0.00570917
-0.00977679
0.0965316
0.0046028
-0.00983832
0.0986526
0.00347315
-0.009887
0.100364
0.00232453
-0.00992161
0.101655
0.00116244
-0.00994322
0.10252
-6.63637e-06
-0.00995354
0.102954
-0.00117553
-0.00995384
0.102954
-0.00233717
-0.00994409
0.10252
-0.003485
-0.009923
0.101654
-0.00461363
-0.00988875
0.100362
-0.00571878
-0.00984031
0.0986513
-0.00679688
-0.00977893
0.0965301
-0.00784355
-0.0097091
0.0940101
-0.0088514
-0.00963781
0.091103
-0.00980637
-0.00957233
0.0878197
-0.0106815
-0.00951398
0.0841659
-0.011421
-0.00944664
0.0801306
-0.0118838
-0.00932012
0.075642
-0.0116177
-0.00899781
0.0703951
-0.00905882
-0.00748723
0.0631658
-0.0048871
0.0517021
0.00856052
-0.00481816
0.0440546
0.0113025
-0.00733611
0.054872
0.0117211
-0.00914601
0.0623435
0.0113379
-0.00959184
0.0678573
0.0106364
-0.00979379
0.0725545
0.00978283
-0.0099167
0.0767556
0.00884443
-0.0100218
0.0805487
0.00785106
-0.0101287
0.0839538
0.00681601
-0.0102354
0.0869682
0.00574515
-0.010333
0.0895811
0.00464152
-0.0104139
0.0917804
0.00350854
-0.0104747
0.0935544
0.00235152
-0.0105163
0.0948936
0.00117732
-0.0105414
0.0957904
-5.72488e-06
-0.0105531
0.09624
-0.0011886
-0.0105534
0.0962399
-0.00236243
-0.0105421
0.0957899
-0.00351883
-0.0105175
0.0948927
-0.00465092
-0.0104762
0.0935533
-0.0057535
-0.0104156
0.0917791
-0.00682316
-0.0103349
0.0895797
-0.00785691
-0.0102375
0.0869667
-0.00884898
-0.010131
0.0839524
-0.00978603
-0.0100242
0.0805475
-0.0106384
-0.00991891
0.0767546
-0.011339
-0.00979545
0.0725538
-0.0117213
-0.00959267
0.0678569
-0.0113024
-0.00914541
0.0623433
-0.00856034
-0.00733351
0.0548719
-0.00481378
0.044055
0.00788442
-0.00456444
0.0360805
0.0107943
-0.0068031
0.0460391
0.0114365
-0.00899395
0.0537102
0.0111763
-0.00960834
0.0595345
0.0105306
-0.00990373
0.064471
0.00971223
-0.0100984
0.0688522
0.00880622
-0.010266
0.0727951
0.00784423
-0.010427
0.0763327
0.00683567
-0.0105766
0.0794648
0.00578248
-0.0107044
0.0821804
0.00468612
-0.0108039
0.0844661
0.00355096
-0.0108752
0.0863098
0.00238419
-0.0109221
0.0877014
0.00119542
-0.0109496
0.0886334
-4.57434e-06
-0.0109623
0.0891006
-0.00120457
-0.0109625
0.0891004
-0.002393
-0.0109503
0.0886329
-0.00355931
-0.010923
0.0877007
-0.00469384
-0.0108764
0.0863088
-0.00578937
-0.0108053
0.0844649
-0.00684165
-0.0107059
0.0821791
-0.00784918
-0.0105784
0.0794635
-0.00881008
-0.0104291
0.0763314
-0.00971503
-0.0102683
0.072794
-0.0105323
-0.0101008
0.0688514
-0.0111768
-0.00990598
0.0644704
-0.0114366
-0.00960924
0.0595341
-0.0107937
-0.00899369
0.0537099
-0.00788306
-0.00680106
0.046039
-0.00455881
0.0360806
0.00693858
-0.00403213
0.0279014
0.0100708
-0.005927
0.0368219
0.0110045
-0.00846086
0.0445711
0.0108644
-0.00922051
0.0507184
0.010271
-0.00962129
0.0558985
0.00950654
-0.00992272
0.0604649
0.00866528
-0.0101873
0.0645705
0.00776744
-0.010426
0.0682575
0.00681139
-0.0106303
0.0715243
0.0057933
-0.0107919
0.0743572
0.00471499
-0.0109105
0.0767414
0.00358393
-0.0109921
0.0786642
0.00241162
-0.0110445
0.0801151
0.00121123
-0.011075
0.0810866
-3.2611e-06
-0.011089
0.0815736
-0.00121763
-0.0110892
0.0815735
-0.00241788
-0.0110755
0.0810863
-0.00358992
-0.0110452
0.0801146
-0.00472057
-0.010993
0.0786635
-0.0057984
-0.0109115
0.0767406
-0.00681582
-0.0107931
0.0743562
-0.0077713
-0.0106316
0.0715232
-0.00866843
-0.0104278
0.0682564
-0.00950897
-0.0101895
0.0645696
-0.0102724
-0.00992547
0.0604643
-0.0108654
-0.0096236
0.0558981
-0.0110042
-0.0092225
0.0507182
-0.0100692
-0.00846181
0.0445709
-0.00693808
-0.00592381
0.0368218
-0.00402602
0.0279014
0.00679686
-0.00445239
0.01989
0.00945561
-0.00391666
0.0272577
0.0102933
-0.00703284
0.0350615
0.0101032
-0.00790731
0.0413145
0.00958414
-0.00851249
0.0466399
0.00896147
-0.00900651
0.0513827
0.00827294
-0.0094228
0.0556767
0.00750819
-0.00976918
0.059544
0.00665288
-0.0100433
0.0629739
0.00570331
-0.0102482
0.065949
0.00466763
-0.010395
0.0684527
0.00356135
-0.0104963
0.070471
0.00240249
-0.0105631
0.0719934
0.00120908
-0.0106032
0.0730124
-1.48012e-06
-0.0106219
0.0735231
-0.00121197
-0.0106221
0.0735231
-0.00240538
-0.0106035
0.0730122
-0.00356413
-0.0105636
0.0719931
-0.00467029
-0.0104969
0.0704706
-0.0057058
-0.0103956
0.0684521
-0.00665518
-0.0102489
0.0659484
-0.00751026
-0.0100441
0.0629732
-0.00827482
-0.00977043
0.0595433
-0.0089633
-0.00942448
0.0556761
-0.00958594
-0.00900894
0.0513824
-0.0101049
-0.00851486
0.0466399
-0.0102943
-0.00791015
0.0413146
-0.00945618
-0.00703437
0.0350616
-0.0068019
-0.00390907
0.0272578
-0.00445132
0.01989
0.00310645
-0.000238372
0.00970124
0.00538082
-0.00116145
0.0178601
0.00649821
-0.00453621
0.024874
0.00683786
-0.00514863
0.0306873
0.00693628
-0.00580377
0.0359458
0.0068533
-0.00637261
0.0408112
0.00661023
-0.00687231
0.0452799
0.00620405
-0.00728279
0.0493248
0.00563343
-0.00760349
0.0529246
0.00491258
-0.00784765
0.0560548
0.00406809
-0.00803127
0.0586915
0.00312929
-0.00816677
0.0608179
0.00212268
-0.00826172
0.0624223
0.00107244
-0.00832196
0.0634964
8.94803e-07
-0.00835119
0.0640347
-0.00107075
-0.00835125
0.0640347
-0.00212103
-0.00832214
0.0634963
-0.00312778
-0.00826199
0.0624222
-0.00406683
-0.00816696
0.0608178
-0.00491144
-0.00803156
0.0586913
-0.00563237
-0.00784795
0.0560545
-0.00620304
-0.00760385
0.0529242
-0.00660984
-0.00728303
0.0493244
-0.0068532
-0.00687336
0.0452796
-0.00693777
-0.00637328
0.040811
-0.00684101
-0.00580458
0.0359459
-0.00650021
-0.00515293
0.0306877
-0.00538444
-0.00453642
0.0248743
-0.00310491
-0.00115921
0.0178603
-0.000235779
0.00970125
-8.66079e-06
0.00752968
0.00291852
0.00974942
0.00302691
0.0149928
0.00339697
0.0196063
0.00367177
0.0241916
0.00381656
0.0285269
0.00382197
0.032543
0.00368723
0.0362268
0.0034129
0.0395554
0.0030175
0.042478
0.00252479
0.0449563
0.00195703
0.0469649
0.00133493
0.0484864
0.00067734
0.049508
2.20407e-06
0.0500209
-0.000673
0.0500209
-0.00133081
0.049508
-0.00195323
0.0484865
-0.00252122
0.046965
-0.00301426
0.0449563
-0.00340998
0.042478
-0.00368462
0.0395553
-0.0038195
0.0362267
-0.003815
0.0325428
-0.00367077
0.0285268
-0.00339678
0.0241916
-0.00303118
0.0196064
-0.00292317
0.0149929
6.13529e-06
0.00974954
0.00752974
0.000729662
0.000435464
0.00636516
0.00101787
0.000928097
0.00853389
0.000768918
0.00187
0.0133731
0.000668527
0.00217824
0.0175304
0.000632484
0.00261931
0.0216109
0.000662846
0.00305588
0.0254437
0.000717216
0.00349852
0.0289935
0.000763601
0.00392838
0.032256
0.000777694
0.00433263
0.0352133
0.000747182
0.0046976
0.037816
0.000668756
0.00501429
0.0400259
0.000545332
0.00527621
0.0418178
0.000384494
0.00547753
0.0431755
0.000196947
0.00561399
0.0440873
-4.43266e-06
0.00568278
0.0445454
-0.000205799
0.00568271
0.0445455
-0.000393251
0.00561372
0.0440876
-0.000553987
0.00547715
0.0431759
-0.000677253
0.00527568
0.0418184
-0.000755522
0.00501367
0.0400266
-0.000785658
0.00469669
0.0378169
-0.000771146
0.00433164
0.0352142
-0.000724469
0.00392748
0.0322569
-0.000669094
0.00349689
0.0289943
-0.000639445
0.00305596
0.0254445
-0.000676272
0.00261946
0.0216115
-0.000770365
0.00217138
0.0175308
-0.001024
0.00187421
0.0133733
-0.000731344
0.000923352
0.00853402
0.000433474
0.00636517