/*--------------------------------*- C++ -*----------------------------------*\
| =========                 |                                                 |
| \\      /  F ield         | OpenFOAM: The Open Source CFD Toolbox           |
|  \\    /   O peration     | Version:  2312                                  |
|   \\  /    A nd           | Website:  www.openfoam.com                      |
|    \\/     M anipulation  |                                                 |
\*---------------------------------------------------------------------------*/
FoamFile
{
    version     2.0;
    format      ascii;
    arch        "LSB;label=32;scalar=64";
    class       volScalarField;
    location    "450";
    object      T;
}
// * * * * * * * * * * * * * * * * * * * * * * * * * * * * * * * * * * * * * //

dimensions      [0 0 0 1 0 0 0];

internalField   nonuniform List<scalar> 
27000
(
426.595
356.045
347.391
343.186
342.445
342.505
342.704
342.933
343.163
343.365
343.533
343.667
343.767
343.833
343.865
343.865
343.832
343.766
343.666
343.532
343.364
343.162
342.931
342.702
342.503
342.443
343.185
347.392
356.05
426.613
335.737
354.621
348.608
346.959
346.62
346.762
346.962
347.129
347.264
347.372
347.455
347.519
347.565
347.595
347.609
347.609
347.594
347.564
347.518
347.454
347.37
347.263
347.128
346.96
346.761
346.62
346.961
348.613
354.632
335.743
342.269
345.594
348.216
348.018
347.861
347.86
347.919
347.976
348.02
348.053
348.078
348.097
348.11
348.119
348.123
348.123
348.118
348.109
348.096
348.077
348.052
348.019
347.975
347.919
347.862
347.864
348.023
348.223
345.602
342.273
342.213
346.073
347.701
348.04
348.064
348.068
348.091
348.118
348.141
348.158
348.17
348.179
348.184
348.188
348.19
348.189
348.188
348.184
348.178
348.17
348.158
348.142
348.119
348.092
348.071
348.068
348.046
347.709
346.08
342.217
342.632
346.587
347.803
348.049
348.108
348.123
348.135
348.15
348.164
348.174
348.181
348.186
348.189
348.19
348.191
348.191
348.19
348.188
348.185
348.181
348.174
348.164
348.152
348.138
348.127
348.113
348.056
347.809
346.592
342.634
343.053
346.94
347.912
348.091
348.134
348.146
348.152
348.159
348.166
348.172
348.176
348.179
348.18
348.181
348.181
348.181
348.181
348.18
348.179
348.177
348.173
348.168
348.161
348.155
348.15
348.139
348.097
347.917
346.944
343.055
343.45
347.188
347.985
348.125
348.155
348.16
348.161
348.163
348.165
348.167
348.169
348.17
348.171
348.171
348.171
348.171
348.171
348.171
348.171
348.17
348.169
348.167
348.165
348.165
348.164
348.159
348.129
347.989
347.191
343.452
343.796
347.372
348.037
348.148
348.169
348.17
348.167
348.164
348.163
348.163
348.163
348.164
348.164
348.164
348.164
348.164
348.164
348.164
348.164
348.164
348.165
348.165
348.167
348.17
348.173
348.172
348.152
348.04
347.374
343.797
344.092
347.512
348.076
348.165
348.178
348.175
348.17
348.165
348.162
348.16
348.16
348.159
348.159
348.159
348.158
348.159
348.159
348.159
348.16
348.161
348.162
348.164
348.167
348.172
348.178
348.181
348.167
348.078
347.513
344.093
344.338
347.619
348.107
348.178
348.185
348.179
348.172
348.166
348.161
348.159
348.157
348.156
348.156
348.156
348.156
348.156
348.156
348.156
348.157
348.158
348.16
348.163
348.167
348.174
348.181
348.187
348.179
348.109
347.62
344.339
344.533
347.7
348.131
348.188
348.19
348.182
348.173
348.166
348.161
348.158
348.156
348.155
348.155
348.155
348.155
348.155
348.155
348.155
348.156
348.157
348.159
348.162
348.167
348.174
348.183
348.191
348.189
348.132
347.701
344.533
344.681
347.76
348.149
348.196
348.194
348.184
348.174
348.167
348.161
348.158
348.156
348.155
348.155
348.155
348.155
348.155
348.155
348.155
348.156
348.157
348.159
348.162
348.167
348.175
348.184
348.194
348.196
348.15
347.76
344.681
344.788
347.801
348.162
348.201
348.197
348.185
348.175
348.167
348.162
348.159
348.157
348.156
348.156
348.155
348.155
348.155
348.155
348.156
348.156
348.157
348.159
348.162
348.167
348.175
348.185
348.197
348.201
348.162
347.801
344.788
344.857
347.828
348.171
348.206
348.199
348.187
348.176
348.168
348.163
348.16
348.158
348.157
348.157
348.156
348.156
348.156
348.156
348.156
348.157
348.158
348.159
348.163
348.168
348.176
348.186
348.198
348.205
348.17
347.828
344.857
344.891
347.841
348.176
348.209
348.201
348.189
348.178
348.17
348.164
348.161
348.159
348.158
348.158
348.158
348.157
348.157
348.157
348.157
348.158
348.159
348.16
348.163
348.169
348.177
348.188
348.2
348.207
348.175
347.841
344.891
344.892
347.843
348.178
348.21
348.203
348.191
348.179
348.171
348.166
348.163
348.161
348.16
348.159
348.159
348.159
348.158
348.158
348.159
348.159
348.16
348.161
348.165
348.17
348.178
348.189
348.201
348.209
348.176
347.842
344.891
344.859
347.832
348.176
348.211
348.204
348.192
348.181
348.173
348.168
348.164
348.162
348.161
348.16
348.16
348.16
348.16
348.16
348.16
348.16
348.161
348.163
348.166
348.171
348.179
348.19
348.202
348.209
348.174
347.831
344.859
344.792
347.808
348.17
348.21
348.205
348.194
348.183
348.175
348.169
348.166
348.163
348.162
348.162
348.161
348.161
348.161
348.161
348.161
348.161
348.162
348.164
348.168
348.173
348.181
348.192
348.203
348.208
348.168
347.806
344.791
344.686
347.769
348.16
348.207
348.205
348.195
348.185
348.177
348.171
348.167
348.165
348.164
348.163
348.162
348.162
348.162
348.162
348.162
348.163
348.164
348.166
348.169
348.175
348.183
348.193
348.203
348.205
348.158
347.767
344.686
344.54
347.712
348.145
348.202
348.204
348.195
348.186
348.178
348.173
348.169
348.167
348.165
348.164
348.164
348.164
348.164
348.164
348.164
348.164
348.165
348.167
348.171
348.176
348.184
348.193
348.202
348.2
348.143
347.71
344.539
344.346
347.633
348.124
348.195
348.201
348.195
348.186
348.179
348.174
348.171
348.169
348.167
348.167
348.166
348.166
348.166
348.166
348.166
348.166
348.167
348.169
348.172
348.177
348.184
348.192
348.199
348.192
348.121
347.631
344.345
344.102
347.528
348.095
348.184
348.196
348.192
348.185
348.179
348.175
348.172
348.171
348.17
348.17
348.17
348.17
348.169
348.169
348.169
348.169
348.17
348.171
348.173
348.177
348.183
348.19
348.194
348.181
348.092
347.526
344.101
343.807
347.39
348.057
348.168
348.188
348.187
348.182
348.178
348.176
348.175
348.175
348.175
348.175
348.175
348.175
348.175
348.175
348.174
348.174
348.174
348.174
348.174
348.176
348.18
348.185
348.186
348.166
348.055
347.387
343.806
343.463
347.207
348.007
348.146
348.174
348.177
348.175
348.175
348.176
348.178
348.18
348.181
348.182
348.183
348.183
348.183
348.182
348.182
348.18
348.179
348.177
348.175
348.173
348.174
348.175
348.172
348.144
348.005
347.205
343.462
343.066
346.961
347.935
348.112
348.152
348.16
348.164
348.169
348.175
348.181
348.186
348.189
348.191
348.192
348.193
348.193
348.192
348.191
348.188
348.185
348.18
348.174
348.168
348.162
348.158
348.15
348.11
347.933
346.959
343.065
342.647
346.609
347.825
348.068
348.122
348.133
348.143
348.157
348.17
348.181
348.19
348.195
348.199
348.201
348.202
348.202
348.201
348.198
348.194
348.189
348.18
348.169
348.156
348.142
348.131
348.12
348.067
347.824
346.607
342.646
342.231
346.097
347.722
348.054
348.071
348.072
348.093
348.122
348.146
348.164
348.178
348.187
348.194
348.198
348.2
348.2
348.198
348.193
348.186
348.177
348.163
348.145
348.121
348.092
348.071
348.07
348.052
347.72
346.095
342.23
342.29
345.619
348.23
348.021
347.859
347.857
347.917
347.976
348.022
348.058
348.084
348.104
348.119
348.128
348.133
348.133
348.128
348.118
348.103
348.083
348.056
348.021
347.975
347.916
347.856
347.857
348.019
348.228
345.617
342.289
335.769
354.637
348.603
346.947
346.608
346.754
346.957
347.127
347.265
347.375
347.46
347.524
347.571
347.601
347.616
347.616
347.601
347.57
347.523
347.459
347.373
347.264
347.126
346.956
346.753
346.607
346.946
348.6
354.633
335.764
426.609
356.03
347.374
343.172
342.435
342.499
342.701
342.931
343.163
343.366
343.534
343.668
343.769
343.835
343.868
343.868
343.835
343.768
343.668
343.534
343.366
343.163
342.931
342.7
342.498
342.435
343.171
347.373
356.029
426.6
447.558
363.27
347.527
339.072
336.542
335.995
336.002
336.174
336.405
336.636
336.834
336.992
337.109
337.187
337.227
337.227
337.188
337.11
336.993
336.836
336.638
336.407
336.176
336.004
335.998
336.544
339.073
347.527
363.267
447.518
332.406
361.275
352.221
346.885
344.063
343.248
343.289
343.572
343.879
344.151
344.37
344.536
344.656
344.733
344.771
344.771
344.734
344.657
344.538
344.371
344.153
343.881
343.574
343.291
343.249
344.062
346.88
352.211
361.254
332.381
337.073
343.73
349.43
348.816
347.532
346.837
346.656
346.706
346.821
346.933
347.026
347.098
347.148
347.181
347.197
347.197
347.181
347.149
347.099
347.028
346.934
346.821
346.707
346.655
346.834
347.526
348.805
349.414
343.712
337.061
336.073
341.916
346.411
347.972
348.037
347.82
347.69
347.665
347.693
347.734
347.772
347.802
347.824
347.839
347.846
347.846
347.839
347.825
347.802
347.772
347.733
347.692
347.663
347.686
347.814
348.027
347.959
346.397
341.903
336.066
336.461
342.355
346.045
347.503
347.942
348.005
347.982
347.967
347.973
347.989
348.006
348.021
348.033
348.041
348.044
348.044
348.041
348.033
348.021
348.006
347.987
347.971
347.964
347.977
347.998
347.932
347.491
346.034
342.347
336.457
336.83
343.162
346.361
347.491
347.895
348.028
348.063
348.07
348.076
348.085
348.094
348.103
348.11
348.114
348.117
348.117
348.114
348.109
348.102
348.093
348.083
348.073
348.066
348.057
348.022
347.887
347.482
346.354
343.157
336.827
337.228
343.815
346.685
347.596
347.917
348.042
348.09
348.109
348.118
348.125
348.131
348.137
348.141
348.144
348.145
348.145
348.143
348.14
348.136
348.13
348.123
348.115
348.105
348.086
348.036
347.911
347.59
346.681
343.812
337.227
337.636
344.313
346.923
347.694
347.956
348.061
348.107
348.127
348.137
348.143
348.147
348.15
348.153
348.154
348.155
348.155
348.154
348.152
348.149
348.145
348.141
348.134
348.124
348.103
348.057
347.952
347.691
346.921
344.312
337.636
338.006
344.697
347.095
347.768
347.99
348.079
348.119
348.137
348.146
348.15
348.153
348.155
348.156
348.157
348.158
348.157
348.157
348.156
348.154
348.152
348.149
348.144
348.135
348.117
348.077
347.988
347.767
347.094
344.697
338.006
338.322
344.992
347.219
347.822
348.017
348.094
348.128
348.144
348.15
348.153
348.155
348.156
348.156
348.157
348.157
348.157
348.156
348.156
348.155
348.154
348.152
348.149
348.142
348.127
348.093
348.016
347.822
347.22
344.993
338.323
338.586
345.216
347.31
347.86
348.036
348.105
348.135
348.147
348.152
348.154
348.155
348.155
348.155
348.155
348.155
348.155
348.155
348.154
348.154
348.154
348.154
348.152
348.147
348.135
348.106
348.037
347.862
347.311
345.217
338.587
338.798
345.383
347.375
347.888
348.05
348.113
348.139
348.149
348.153
348.154
348.154
348.153
348.153
348.153
348.153
348.153
348.153
348.153
348.153
348.154
348.154
348.153
348.15
348.14
348.114
348.052
347.891
347.378
345.385
338.799
338.956
345.502
347.42
347.907
348.059
348.117
348.141
348.15
348.153
348.153
348.152
348.152
348.151
348.151
348.151
348.151
348.151
348.151
348.152
348.153
348.153
348.153
348.151
348.142
348.12
348.062
347.91
347.424
345.505
338.958
339.061
345.579
347.448
347.918
348.064
348.119
348.141
348.149
348.152
348.151
348.151
348.15
348.149
348.149
348.149
348.149
348.149
348.15
348.15
348.151
348.152
348.153
348.151
348.144
348.122
348.068
347.922
347.452
345.582
339.063
339.113
345.615
347.461
347.922
348.066
348.119
348.141
348.148
348.15
348.15
348.149
348.148
348.148
348.147
348.147
348.147
348.148
348.148
348.149
348.15
348.151
348.152
348.15
348.143
348.123
348.069
347.926
347.465
345.619
339.114
339.112
345.614
347.459
347.92
348.064
348.117
348.139
348.146
348.149
348.148
348.148
348.147
348.146
348.146
348.146
348.146
348.146
348.147
348.147
348.148
348.15
348.15
348.149
348.141
348.121
348.068
347.925
347.463
345.617
339.114
339.058
345.574
347.442
347.912
348.058
348.114
348.136
348.144
348.147
348.147
348.146
348.145
348.145
348.145
348.145
348.145
348.145
348.145
348.146
348.147
348.148
348.148
348.146
348.138
348.117
348.062
347.916
347.447
345.577
339.06
338.951
345.494
347.41
347.897
348.05
348.108
348.132
348.141
348.145
348.145
348.145
348.144
348.144
348.144
348.144
348.144
348.144
348.144
348.145
348.146
348.146
348.146
348.143
348.134
348.111
348.053
347.901
347.414
345.497
338.953
338.79
345.371
347.361
347.874
348.037
348.1
348.127
348.138
348.142
348.144
348.144
348.144
348.143
348.143
348.143
348.143
348.143
348.143
348.144
348.144
348.144
348.143
348.139
348.129
348.102
348.04
347.878
347.365
345.375
338.793
338.577
345.2
347.292
347.843
348.019
348.089
348.12
348.134
348.14
348.142
348.143
348.143
348.143
348.143
348.143
348.143
348.143
348.143
348.143
348.143
348.142
348.14
348.134
348.121
348.091
348.022
347.846
347.295
345.204
338.579
338.31
344.973
347.197
347.8
347.997
348.076
348.112
348.128
348.136
348.14
348.141
348.142
348.143
348.143
348.143
348.143
348.142
348.142
348.142
348.141
348.139
348.136
348.128
348.112
348.077
347.998
347.803
347.2
344.976
338.312
337.992
344.675
347.07
347.744
347.968
348.059
348.101
348.121
348.131
348.136
348.138
348.14
348.141
348.142
348.142
348.142
348.141
348.141
348.139
348.138
348.135
348.13
348.12
348.101
348.059
347.968
347.745
347.072
344.678
337.993
337.619
344.288
346.895
347.667
347.931
348.04
348.089
348.111
348.122
348.128
348.132
348.135
348.136
348.138
348.138
348.138
348.137
348.136
348.134
348.131
348.127
348.12
348.11
348.087
348.039
347.931
347.668
346.896
344.29
337.621
337.208
343.787
346.654
347.567
347.892
348.021
348.074
348.094
348.104
348.111
348.116
348.12
348.124
348.126
348.127
348.126
348.125
348.123
348.119
348.115
348.109
348.102
348.092
348.072
348.019
347.89
347.566
346.654
343.788
337.209
336.807
343.132
346.327
347.46
347.871
348.011
348.049
348.058
348.064
348.072
348.08
348.087
348.092
348.095
348.097
348.097
348.095
348.091
348.085
348.078
348.07
348.062
348.056
348.046
348.008
347.869
347.458
346.326
343.131
336.807
336.435
342.32
346.008
347.473
347.923
347.994
347.974
347.96
347.964
347.977
347.992
348.005
348.015
348.021
348.024
348.024
348.02
348.014
348.004
347.991
347.975
347.962
347.957
347.971
347.991
347.92
347.47
346.006
342.319
336.435
336.04
341.872
346.374
347.951
348.03
347.82
347.69
347.663
347.686
347.723
347.758
347.786
347.806
347.819
347.825
347.825
347.818
347.805
347.785
347.757
347.722
347.684
347.66
347.688
347.817
348.027
347.948
346.371
341.871
336.039
337.029
343.68
349.405
348.817
347.545
346.85
346.664
346.708
346.816
346.924
347.013
347.082
347.13
347.162
347.177
347.177
347.162
347.13
347.081
347.013
346.923
346.815
346.706
346.662
346.848
347.543
348.815
349.403
343.68
337.028
332.324
361.245
352.237
346.915
344.091
343.267
343.299
343.574
343.876
344.143
344.359
344.523
344.642
344.718
344.756
344.756
344.718
344.642
344.524
344.359
344.143
343.875
343.573
343.299
343.267
344.091
346.915
352.236
361.247
332.327
447.536
363.315
347.571
339.105
336.562
336.006
336.007
336.174
336.402
336.631
336.828
336.986
337.102
337.18
337.219
337.219
337.18
337.103
336.986
336.829
336.631
336.402
336.174
336.007
336.006
336.562
339.105
347.57
363.313
447.539
445.955
362.513
346.87
337.773
334.519
333.47
333.185
333.158
333.227
333.316
333.403
333.479
333.539
333.58
333.601
333.601
333.58
333.539
333.479
333.403
333.316
333.227
333.158
333.185
333.47
334.519
337.774
346.872
362.515
445.988
331.985
360.478
352.584
346.797
342.848
341.032
340.475
340.492
340.72
340.996
341.252
341.465
341.625
341.732
341.785
341.785
341.732
341.626
341.465
341.253
340.997
340.721
340.493
340.476
341.033
342.85
346.801
352.591
360.492
332.004
336.019
343.341
349.657
349.222
347.248
345.72
345.031
344.896
345.008
345.19
345.366
345.51
345.617
345.686
345.721
345.721
345.687
345.617
345.511
345.367
345.192
345.01
344.898
345.033
345.723
347.252
349.228
349.666
343.351
336.025
333.887
340.176
345.424
347.855
348.048
347.55
347.148
346.978
346.964
347.017
347.086
347.148
347.196
347.228
347.244
347.244
347.229
347.197
347.15
347.088
347.019
346.966
346.981
347.151
347.553
348.053
347.862
345.431
340.182
333.89
333.83
339.699
344.106
346.73
347.727
347.878
347.789
347.703
347.67
347.676
347.699
347.724
347.745
347.76
347.767
347.768
347.761
347.747
347.726
347.701
347.678
347.672
347.706
347.792
347.881
347.731
346.734
344.111
339.702
333.831
333.987
340.182
344.242
346.539
347.526
347.865
347.942
347.938
347.927
347.927
347.934
347.945
347.955
347.962
347.966
347.967
347.963
347.956
347.946
347.936
347.929
347.93
347.941
347.944
347.868
347.529
346.541
344.244
340.183
333.987
334.159
340.799
344.774
346.723
347.527
347.854
347.977
348.015
348.025
348.03
348.034
348.04
348.045
348.049
348.052
348.052
348.05
348.046
348.041
348.036
348.031
348.027
348.017
347.978
347.856
347.528
346.723
344.774
340.799
334.158
334.348
341.373
345.27
346.949
347.602
347.876
347.995
348.045
348.066
348.075
348.08
348.084
348.088
348.09
348.091
348.091
348.09
348.088
348.085
348.082
348.076
348.067
348.046
347.996
347.877
347.602
346.949
345.269
341.372
334.347
334.548
341.875
345.648
347.134
347.684
347.911
348.014
348.063
348.086
348.097
348.102
348.106
348.108
348.109
348.11
348.11
348.109
348.108
348.106
348.103
348.098
348.087
348.064
348.014
347.911
347.684
347.133
345.646
341.874
334.547
334.741
342.3
345.932
347.272
347.751
347.944
348.033
348.076
348.098
348.108
348.113
348.115
348.117
348.117
348.118
348.118
348.118
348.117
348.116
348.114
348.109
348.098
348.076
348.032
347.943
347.749
347.271
345.929
342.298
334.739
334.913
342.646
346.142
347.372
347.8
347.97
348.048
348.087
348.106
348.114
348.118
348.12
348.121
348.121
348.121
348.121
348.121
348.121
348.12
348.119
348.115
348.106
348.086
348.048
347.969
347.798
347.37
346.139
342.643
334.911
335.057
342.913
346.295
347.444
347.836
347.991
348.061
348.095
348.111
348.118
348.121
348.122
348.122
348.122
348.122
348.122
348.122
348.122
348.122
348.121
348.118
348.111
348.094
348.06
347.989
347.834
347.442
346.292
342.91
335.055
335.169
343.106
346.402
347.494
347.861
348.005
348.07
348.1
348.115
348.121
348.123
348.123
348.122
348.122
348.122
348.122
348.122
348.123
348.123
348.123
348.121
348.114
348.1
348.069
348.004
347.859
347.491
346.399
343.103
335.166
335.245
343.231
346.47
347.526
347.877
348.015
348.076
348.104
348.117
348.122
348.123
348.123
348.122
348.122
348.121
348.122
348.122
348.123
348.124
348.124
348.122
348.117
348.104
348.075
348.013
347.875
347.523
346.467
343.228
335.243
335.285
343.292
346.503
347.541
347.885
348.019
348.079
348.106
348.118
348.123
348.124
348.124
348.123
348.122
348.122
348.122
348.122
348.123
348.124
348.124
348.123
348.118
348.106
348.078
348.018
347.884
347.538
346.499
343.289
335.283
335.286
343.293
346.504
347.542
347.886
348.02
348.079
348.107
348.119
348.123
348.125
348.124
348.123
348.123
348.122
348.122
348.123
348.124
348.125
348.125
348.124
348.119
348.107
348.079
348.019
347.884
347.539
346.5
343.29
335.283
335.247
343.233
346.472
347.527
347.879
348.016
348.077
348.105
348.118
348.123
348.125
348.125
348.124
348.124
348.123
348.123
348.124
348.125
348.125
348.126
348.124
348.119
348.106
348.077
348.015
347.877
347.525
346.469
343.23
335.244
335.171
343.109
346.405
347.497
347.864
348.007
348.072
348.102
348.117
348.123
348.125
348.125
348.125
348.125
348.125
348.125
348.125
348.126
348.126
348.126
348.124
348.118
348.103
348.072
348.007
347.863
347.495
346.403
343.106
335.169
335.061
342.917
346.299
347.448
347.839
347.994
348.064
348.097
348.114
348.121
348.124
348.125
348.126
348.126
348.126
348.126
348.126
348.127
348.127
348.126
348.123
348.115
348.099
348.065
347.994
347.839
347.447
346.298
342.915
335.059
334.918
342.651
346.147
347.378
347.805
347.975
348.052
348.09
348.109
348.118
348.123
348.125
348.125
348.126
348.126
348.127
348.127
348.127
348.126
348.124
348.12
348.111
348.092
348.054
347.976
347.805
347.377
346.146
342.65
334.916
334.747
342.308
345.939
347.279
347.756
347.949
348.037
348.081
348.102
348.113
348.118
348.121
348.123
348.124
348.125
348.125
348.125
348.124
348.123
348.121
348.115
348.105
348.083
348.039
347.951
347.758
347.28
345.939
342.307
334.746
334.555
341.884
345.657
347.142
347.691
347.917
348.019
348.068
348.091
348.103
348.108
348.112
348.115
348.117
348.118
348.118
348.118
348.117
348.115
348.111
348.106
348.095
348.071
348.022
347.92
347.694
347.144
345.658
341.884
334.555
334.357
341.383
345.28
346.959
347.61
347.883
348.001
348.051
348.072
348.081
348.087
348.092
348.096
348.099
348.101
348.101
348.1
348.098
348.095
348.091
348.085
348.076
348.055
348.005
347.886
347.613
346.962
345.282
341.385
334.357
334.168
340.811
344.786
346.733
347.535
347.861
347.982
348.021
348.031
348.036
348.042
348.049
348.055
348.06
348.063
348.063
348.061
348.058
348.052
348.046
348.041
348.036
348.025
347.987
347.866
347.54
346.737
344.79
340.813
334.17
333.998
340.195
344.256
346.551
347.535
347.871
347.946
347.943
347.933
347.934
347.943
347.955
347.966
347.974
347.979
347.979
347.976
347.969
347.959
347.948
347.939
347.939
347.949
347.952
347.877
347.54
346.556
344.26
340.199
334
333.843
339.715
344.122
346.742
347.734
347.882
347.792
347.707
347.676
347.684
347.708
347.735
347.758
347.773
347.781
347.782
347.775
347.761
347.74
347.714
347.69
347.682
347.714
347.799
347.888
347.74
346.748
344.127
339.719
333.846
333.903
340.196
345.441
347.864
348.05
347.549
347.148
346.981
346.969
347.025
347.096
347.16
347.209
347.242
347.259
347.259
347.244
347.213
347.165
347.102
347.032
346.977
346.989
347.155
347.556
348.056
347.87
345.447
340.201
333.906
336.041
343.366
349.669
349.221
347.241
345.714
345.028
344.898
345.014
345.199
345.376
345.522
345.63
345.701
345.736
345.736
345.703
345.633
345.526
345.382
345.206
345.022
344.906
345.035
345.72
347.246
349.226
349.674
343.372
336.045
332.036
360.493
352.576
346.782
342.835
341.023
340.472
340.494
340.726
341.003
341.261
341.475
341.636
341.744
341.798
341.798
341.745
341.639
341.478
341.266
341.009
340.732
340.501
340.479
341.029
342.839
346.785
352.578
360.497
332.043
445.968
362.483
346.844
337.753
334.507
333.465
333.183
333.16
333.231
333.322
333.409
333.486
333.546
333.588
333.61
333.61
333.589
333.548
333.488
333.412
333.326
333.236
333.165
333.189
333.47
334.51
337.753
346.839
362.477
445.967
442.09
361.02
346.057
337.07
333.584
332.245
331.74
331.572
331.548
331.572
331.609
331.646
331.678
331.7
331.711
331.711
331.699
331.676
331.645
331.607
331.569
331.545
331.569
331.737
332.242
333.584
337.073
346.063
361.025
442.105
331.363
358.884
351.716
346.153
342.024
339.802
338.853
338.584
338.626
338.784
338.965
339.128
339.257
339.346
339.39
339.39
339.345
339.256
339.126
338.962
338.78
338.622
338.58
338.85
339.8
342.024
346.155
351.719
358.89
331.376
335.489
342.736
348.994
348.722
346.66
344.743
343.596
343.12
343.046
343.162
343.337
343.508
343.646
343.74
343.788
343.787
343.739
343.643
343.505
343.333
343.157
343.042
343.116
343.593
344.742
346.661
348.724
348.997
342.741
335.494
332.849
339.281
344.651
347.365
347.719
347.07
346.392
346.012
345.9
345.938
346.032
346.132
346.215
346.272
346.3
346.3
346.27
346.213
346.129
346.028
345.934
345.896
346.009
346.39
347.07
347.72
347.368
344.655
339.285
332.852
332.428
338.259
342.804
345.861
347.322
347.64
347.51
347.339
347.248
347.231
347.256
347.294
347.33
347.356
347.369
347.369
347.355
347.328
347.291
347.253
347.228
347.245
347.337
347.509
347.641
347.325
345.865
342.808
338.262
332.43
332.403
338.364
342.476
345.334
346.976
347.636
347.799
347.795
347.764
347.75
347.754
347.768
347.783
347.795
347.801
347.801
347.794
347.781
347.766
347.752
347.748
347.763
347.794
347.8
347.638
346.979
345.338
342.479
338.366
332.404
332.471
338.776
342.799
345.469
346.952
347.608
347.862
347.942
347.96
347.963
347.967
347.973
347.98
347.986
347.989
347.989
347.985
347.979
347.972
347.965
347.962
347.959
347.942
347.863
347.61
346.955
345.472
342.801
338.777
332.471
332.567
339.22
343.287
345.816
347.08
347.641
347.891
347.996
348.038
348.054
348.063
348.068
348.073
348.076
348.078
348.078
348.076
348.072
348.067
348.062
348.054
348.038
347.997
347.892
347.643
347.082
345.819
343.288
339.221
332.568
332.678
339.631
343.758
346.147
347.229
347.703
347.922
348.025
348.074
348.097
348.108
348.115
348.119
348.121
348.122
348.122
348.121
348.118
348.114
348.108
348.097
348.074
348.026
347.923
347.704
347.231
346.149
343.76
339.633
332.679
332.79
339.994
344.158
346.406
347.357
347.764
347.953
348.047
348.094
348.119
348.131
348.138
348.141
348.143
348.144
348.144
348.143
348.141
348.137
348.131
348.119
348.095
348.047
347.954
347.765
347.358
346.407
344.16
339.995
332.791
332.894
340.3
344.478
346.597
347.455
347.814
347.98
348.064
348.108
348.131
348.143
348.149
348.152
348.153
348.154
348.154
348.153
348.152
348.149
348.143
348.131
348.108
348.065
347.981
347.815
347.456
346.599
344.479
340.302
332.895
332.982
340.548
344.72
346.736
347.526
347.852
348.002
348.077
348.117
348.138
348.149
348.154
348.156
348.158
348.158
348.158
348.157
348.156
348.154
348.149
348.138
348.117
348.078
348.002
347.853
347.527
346.738
344.722
340.549
332.984
333.051
340.734
344.894
346.832
347.575
347.878
348.017
348.086
348.123
348.142
348.151
348.156
348.158
348.159
348.159
348.159
348.159
348.158
348.156
348.151
348.142
348.123
348.087
348.017
347.879
347.576
346.834
344.895
340.736
333.053
333.099
340.858
345.004
346.892
347.606
347.895
348.026
348.092
348.126
348.144
348.152
348.156
348.158
348.158
348.158
348.158
348.158
348.158
348.156
348.152
348.144
348.126
348.092
348.026
347.895
347.607
346.893
345.006
340.86
333.1
333.123
340.921
345.058
346.92
347.62
347.902
348.03
348.094
348.127
348.144
348.152
348.156
348.157
348.157
348.157
348.157
348.157
348.157
348.156
348.152
348.144
348.127
348.094
348.03
347.903
347.62
346.921
345.059
340.923
333.124
333.122
340.921
345.057
346.919
347.619
347.901
348.029
348.093
348.126
348.143
348.151
348.155
348.156
348.156
348.156
348.156
348.156
348.156
348.155
348.151
348.143
348.126
348.093
348.029
347.901
347.619
346.92
345.058
340.923
333.124
333.097
340.857
345.002
346.889
347.603
347.892
348.023
348.089
348.123
348.141
348.149
348.153
348.155
348.155
348.155
348.155
348.155
348.155
348.153
348.149
348.141
348.123
348.089
348.023
347.892
347.603
346.89
345.003
340.858
333.099
333.049
340.731
344.89
346.828
347.571
347.874
348.012
348.081
348.118
348.137
348.146
348.151
348.153
348.153
348.153
348.154
348.153
348.153
348.151
348.146
348.137
348.118
348.081
348.012
347.873
347.571
346.828
344.891
340.732
333.05
332.979
340.543
344.715
346.731
347.52
347.846
347.995
348.07
348.11
348.131
348.142
348.147
348.149
348.15
348.151
348.151
348.151
348.15
348.147
348.142
348.131
348.11
348.07
347.995
347.845
347.519
346.73
344.715
340.543
332.979
332.89
340.295
344.471
346.59
347.447
347.806
347.972
348.056
348.1
348.123
348.134
348.14
348.143
348.145
348.145
348.145
348.145
348.143
348.141
348.135
348.123
348.1
348.056
347.972
347.806
347.446
346.589
344.47
340.294
332.889
332.785
339.987
344.15
346.397
347.348
347.755
347.944
348.038
348.085
348.109
348.121
348.128
348.131
348.133
348.134
348.134
348.133
348.131
348.128
348.122
348.11
348.085
348.038
347.944
347.755
347.347
346.396
344.148
339.985
332.784
332.671
339.623
343.749
346.138
347.219
347.693
347.912
348.016
348.064
348.087
348.098
348.104
348.107
348.11
348.111
348.111
348.11
348.107
348.104
348.098
348.087
348.064
348.016
347.912
347.693
347.218
346.136
343.747
339.621
332.67
332.559
339.21
343.276
345.806
347.069
347.631
347.881
347.986
348.027
348.043
348.051
348.056
348.061
348.064
348.066
348.065
348.064
348.06
348.056
348.051
348.043
348.028
347.986
347.881
347.631
347.069
345.804
343.273
339.207
332.557
332.462
338.765
342.788
345.458
346.942
347.599
347.852
347.932
347.949
347.952
347.955
347.961
347.967
347.973
347.976
347.976
347.972
347.967
347.96
347.954
347.951
347.949
347.932
347.853
347.599
346.942
345.457
342.785
338.762
332.459
332.394
338.353
342.465
345.324
346.967
347.627
347.791
347.785
347.754
347.739
347.742
347.755
347.77
347.781
347.787
347.787
347.78
347.768
347.753
347.74
347.737
347.752
347.784
347.791
347.628
346.968
345.324
342.464
338.35
332.391
332.418
338.247
342.793
345.852
347.315
347.634
347.503
347.331
347.238
347.22
347.244
347.281
347.316
347.342
347.355
347.355
347.341
347.314
347.278
347.24
347.216
347.234
347.328
347.502
347.634
347.316
345.853
342.793
338.247
332.417
332.839
339.269
344.641
347.359
347.715
347.067
346.387
346.006
345.891
345.927
346.02
346.12
346.202
346.258
346.287
346.286
346.256
346.199
346.115
346.015
345.921
345.885
346
346.384
347.066
347.716
347.36
344.642
339.27
332.84
335.479
342.725
348.989
348.722
346.663
344.744
343.593
343.114
343.037
343.151
343.326
343.496
343.633
343.728
343.775
343.774
343.725
343.63
343.49
343.319
343.143
343.029
343.106
343.588
344.741
346.663
348.725
348.991
342.725
335.479
331.348
358.881
351.722
346.162
342.03
339.802
338.849
338.577
338.617
338.774
338.954
339.117
339.246
339.333
339.377
339.377
339.331
339.242
339.112
338.948
338.766
338.608
338.568
338.842
339.798
342.031
346.167
351.729
358.887
331.341
442.098
361.041
346.077
337.082
333.588
332.242
331.733
331.564
331.539
331.563
331.599
331.636
331.667
331.689
331.7
331.699
331.687
331.664
331.632
331.594
331.556
331.532
331.556
331.726
332.236
333.587
337.089
346.091
361.06
442.123
438.608
359.428
345.084
336.394
332.931
331.481
330.847
330.573
330.469
330.436
330.433
330.442
330.454
330.464
330.47
330.47
330.466
330.456
330.446
330.438
330.443
330.477
330.582
330.855
331.485
332.925
336.372
345.047
359.381
438.525
331.048
357.429
350.591
345.279
341.248
338.935
337.8
337.338
337.221
337.262
337.36
337.467
337.559
337.624
337.658
337.659
337.626
337.562
337.472
337.367
337.27
337.231
337.347
337.807
338.937
341.242
345.266
350.574
357.402
331.031
335.108
342.125
348.109
347.863
345.859
343.864
342.514
341.804
341.53
341.501
341.583
341.699
341.806
341.886
341.927
341.928
341.888
341.81
341.705
341.591
341.51
341.539
341.812
342.52
343.864