/*--------------------------------*- C++ -*----------------------------------*\
| =========                 |                                                 |
| \\      /  F ield         | OpenFOAM: The Open Source CFD Toolbox           |
|  \\    /   O peration     | Version:  2312                                  |
|   \\  /    A nd           | Website:  www.openfoam.com                      |
|    \\/     M anipulation  |                                                 |
\*---------------------------------------------------------------------------*/
FoamFile
{
    version     2.0;
    format      ascii;
    arch        "LSB;label=32;scalar=64";
    class       volVectorField;
    location    "450";
    object      U;
}
// * * * * * * * * * * * * * * * * * * * * * * * * * * * * * * * * * * * * * //

dimensions      [0 1 -1 0 0 0 0];

internalField   nonuniform List<vector> 
27000
(
(-4.50094e-05 9.06693e-05 0.107691)
(-0.000189709 0.000208315 0.0764822)
(-8.8132e-05 0.000216052 0.0818486)
(-5.57732e-05 0.000195702 0.0834254)
(-2.27765e-05 0.000190958 0.0852741)
(-3.34494e-06 0.000192155 0.0867172)
(9.75359e-06 0.000195708 0.0877928)
(1.8506e-05 0.000199305 0.0886529)
(2.33171e-05 0.000202836 0.0893719)
(2.46793e-05 0.000206085 0.0899474)
(2.33079e-05 0.000209071 0.0903984)
(1.9978e-05 0.000211617 0.0907452)
(1.52694e-05 0.000213605 0.0909976)
(9.65372e-06 0.000214953 0.0911619)
(3.52662e-06 0.000215638 0.0912427)
(-2.77611e-06 0.000215657 0.0912426)
(-8.91193e-06 0.000215005 0.0911616)
(-1.45387e-05 0.000213692 0.0909971)
(-1.92716e-05 0.000211741 0.0907444)
(-2.26364e-05 0.000209219 0.0903974)
(-2.40518e-05 0.000206271 0.0899463)
(-2.27631e-05 0.000203034 0.0893706)
(-1.80401e-05 0.000199539 0.0886516)
(-9.43459e-06 0.000195887 0.0877915)
(3.57993e-06 0.000192409 0.0867161)
(2.26375e-05 0.000190933 0.0852733)
(5.5915e-05 0.000195892 0.0834253)
(8.82834e-05 0.000216619 0.0818497)
(0.000189821 0.000207754 0.0764857)
(4.66266e-05 9.28738e-05 0.107699)
(0.000288652 -0.000128058 0.0627569)
(0.000129823 -5.8226e-05 0.0838655)
(0.000105132 0.000141571 0.0918692)
(7.2418e-05 0.000195917 0.0945638)
(6.80822e-05 0.000222637 0.0958335)
(7.00874e-05 0.000241109 0.0966869)
(7.08928e-05 0.000256402 0.0972949)
(6.98005e-05 0.000269254 0.0977445)
(6.64153e-05 0.000279682 0.0980885)
(6.0524e-05 0.00028797 0.0983513)
(5.24197e-05 0.000294417 0.0985493)
(4.25222e-05 0.000299324 0.098696)
(3.13621e-05 0.000302855 0.0988003)
(1.93485e-05 0.00030515 0.0988673)
(6.83321e-06 0.000306293 0.0989)
(-5.83718e-06 0.000306317 0.0988998)
(-1.83594e-05 0.000305235 0.0988668)
(-3.03895e-05 0.000302989 0.0987996)
(-4.15713e-05 0.000299511 0.0986951)
(-5.14888e-05 0.000294663 0.0985482)
(-5.96312e-05 0.000288262 0.0983502)
(-6.55356e-05 0.000280037 0.0980875)
(-6.89538e-05 0.000269648 0.0977439)
(-7.00427e-05 0.000256853 0.0972948)
(-6.92414e-05 0.000241563 0.0966878)
(-6.72326e-05 0.000223093 0.0958358)
(-7.17004e-05 0.000196198 0.0945681)
(-0.000104415 0.000141675 0.0918761)
(-0.00012905 -5.80288e-05 0.0838749)
(-0.000288005 -0.000127665 0.0627609)
(9.18642e-05 0.000144746 0.0806648)
(0.000123438 0.000157858 0.0901372)
(0.000166009 0.000205399 0.097042)
(0.000156959 0.000235001 0.098671)
(0.000140565 0.000255505 0.0991348)
(0.000127088 0.000271293 0.0993559)
(0.000115238 0.000284423 0.0995122)
(0.000103993 0.000295625 0.0996316)
(9.26608e-05 0.000304875 0.0997242)
(8.06822e-05 0.000312278 0.099796)
(6.77219e-05 0.000317961 0.0998507)
(5.38469e-05 0.000322175 0.0998915)
(3.91758e-05 0.000325141 0.0999206)
(2.39404e-05 0.000327032 0.0999394)
(8.3732e-06 0.000327958 0.0999486)
(-7.31875e-06 0.000327998 0.0999486)
(-2.28911e-05 0.000327121 0.0999392)
(-3.8134e-05 0.000325307 0.0999203)
(-5.28133e-05 0.000322395 0.0998911)
(-6.67111e-05 0.000318249 0.0998505)
(-7.96718e-05 0.000312618 0.0997962)
(-9.16696e-05 0.000305283 0.099725)
(-0.000102993 0.000296074 0.0996334)
(-0.000114242 0.000284942 0.0995153)
(-0.000126097 0.000271811 0.0993606)
(-0.00013957 0.000256048 0.0991414)
(-0.000156074 0.000235477 0.0986795)
(-0.000165278 0.000205778 0.0970514)
(-0.000122997 0.000158116 0.0901444)
(-9.07097e-05 0.000146055 0.0806674)
(0.000133327 7.07797e-05 0.0839833)
(0.000149888 0.000146168 0.0941018)
(0.000183894 0.000213437 0.0983937)
(0.000179962 0.000235282 0.0994707)
(0.0001673 0.00025011 0.0997685)
(0.000151682 0.000262034 0.0998716)
(0.000135689 0.000272596 0.0999268)
(0.000120136 0.000281998 0.099967)
(0.00010497 0.000290209 0.0999987)
(8.98362e-05 0.000296988 0.100024)
(7.44561e-05 0.000302338 0.100043)
(5.86363e-05 0.000306335 0.100058)
(4.2398e-05 0.000309141 0.100068)
(2.58004e-05 0.000310923 0.100075)
(8.96798e-06 0.0003118 0.100078)
(-7.93889e-06 0.00031183 0.100078)
(-2.47722e-05 0.00031103 0.100075)
(-4.13733e-05 0.000309308 0.100068)
(-5.76196e-05 0.000306577 0.100058)
(-7.34338e-05 0.000302638 0.100044)
(-8.88299e-05 0.00029736 0.100025)
(-0.000103957 0.000290627 0.100001)
(-0.000119122 0.000282496 0.0999708)
(-0.000134674 0.000273121 0.0999322)
(-0.000150648 0.000262658 0.0998786)
(-0.000166317 0.000250704 0.0997771)
(-0.000179002 0.000235944 0.0994805)
(-0.000183053 0.000214061 0.0984032)
(-0.000149233 0.000146796 0.0941083)
(-0.00013246 7.19013e-05 0.0839862)
(0.000133596 9.76659e-05 0.086488)
(0.000171391 0.000155989 0.0960355)
(0.000202622 0.000208041 0.0990662)
(0.000195988 0.000226719 0.0997376)
(0.000182834 0.000238299 0.0999352)
(0.000166403 0.000247547 0.100001)
(0.000148776 0.000255755 0.100027)
(0.000131083 0.000263364 0.100041)
(0.000113701 0.000270204 0.100051)
(9.65489e-05 0.0002761 0.100059)
(7.94188e-05 0.000280882 0.100065)
(6.21913e-05 0.000284535 0.10007)
(4.47645e-05 0.000287147 0.100073)
(2.71464e-05 0.000288807 0.100075)
(9.39102e-06 0.000289633 0.100076)
(-8.41593e-06 0.000289665 0.100077)
(-2.61724e-05 0.000288916 0.100076)
(-4.37895e-05 0.000287321 0.100074)
(-6.12124e-05 0.000284785 0.100071)
(-7.84468e-05 0.000281198 0.100067)
(-9.55642e-05 0.00027648 0.100062)
(-0.000112717 0.00027066 0.100055)
(-0.000130097 0.000263874 0.100047)
(-0.000147773 0.000256358 0.100034)
(-0.000165418 0.000248189 0.100009)
(-0.000181841 0.000239036 0.0999442)
(-0.000195062 0.000227468 0.099747)
(-0.000201774 0.000208864 0.0990748)
(-0.000170697 0.000156784 0.0960411)
(-0.000132923 9.86782e-05 0.0864903)
(0.000142773 9.67704e-05 0.0882954)
(0.00018974 0.000159236 0.0971508)
(0.000218125 0.000199939 0.0994228)
(0.000209448 0.000213529 0.0998776)
(0.000194857 0.000222322 0.100003)
(0.00017738 0.000229381 0.100042)
(0.000158608 0.000235839 0.100053)
(0.0001396 0.000241938 0.100055)
(0.000120762 0.000247601 0.100055)
(0.00010216 0.000252595 0.100054)
(8.37162e-05 0.000256769 0.100054)
(6.53105e-05 0.000260046 0.100053)
(4.68691e-05 0.000262422 0.100053)
(2.83489e-05 0.000263969 0.100053)
(9.75884e-06 0.000264733 0.100053)
(-8.85527e-06 0.000264774 0.100054)
(-2.74418e-05 0.000264073 0.100054)
(-4.59607e-05 0.000262607 0.100055)
(-6.43978e-05 0.000260295 0.100055)
(-8.27934e-05 0.000257096 0.100056)
(-0.000101236 0.000252992 0.100058)
(-0.000119829 0.00024807 0.100059)
(-0.000138655 0.000242492 0.100061)
(-0.000157669 0.000236467 0.10006)
(-0.000176427 0.000230104 0.10005)
(-0.000193934 0.000223116 0.100011)
(-0.000208553 0.000214409 0.099886)
(-0.000217309 0.000200877 0.0994301)
(-0.00018906 0.000160186 0.0971556)
(-0.000142203 9.77082e-05 0.0882975)
(0.000151325 9.39328e-05 0.0896545)
(0.000206027 0.00015322 0.0978537)
(0.000231335 0.00018644 0.099631)
(0.000220946 0.000196968 0.0999593)
(0.000205013 0.000203631 0.100039)
(0.000186473 0.000209057 0.100058)
(0.000166772 0.000214127 0.100058)
(0.000146771 0.000219042 0.100052)
(0.000126864 0.00022369 0.100046)
(0.000107159 0.000227891 0.100041)
(8.76357e-05 0.000231479 0.100037)
(6.82296e-05 0.000234353 0.100034)
(4.88656e-05 0.000236487 0.100033)
(2.94961e-05 0.000237888 0.100031)
(1.01099e-05 0.000238597 0.100031)
(-9.2871e-06 0.000238631 0.100031)
(-2.86727e-05 0.000237997 0.100032)
(-4.80343e-05 0.000236665 0.100034)
(-6.73914e-05 0.000234609 0.100037)
(-8.67898e-05 0.000231805 0.10004)
(-0.000106301 0.000228297 0.100045)
(-0.000125997 0.000224175 0.100051)
(-0.000145901 0.000219614 0.100058)
(-0.000165893 0.000214791 0.100064)
(-0.000185602 0.000209822 0.100065)
(-0.000204154 0.000204486 0.100046)
(-0.000220125 0.000197927 0.0999664)
(-0.000230578 0.000187468 0.099637)
(-0.000205385 0.000154241 0.0978577)
(-0.000150858 9.4808e-05 0.0896563)
(0.000159226 8.82033e-05 0.0906896)
(0.000219833 0.00014247 0.0983282)
(0.000242326 0.000169425 0.0997643)
(0.000230613 0.000177839 0.10001)
(0.000213547 0.000183047 0.100059)
(0.000194128 0.000187299 0.100064)
(0.000173666 0.000191314 0.100056)
(0.000152895 0.000195264 0.100045)
(0.00013216 0.000199064 0.100036)
(0.000111585 0.000202556 0.100028)
(9.11849e-05 0.000205591 0.100023)
(7.09178e-05 0.000208071 0.100019)
(5.0731e-05 0.000209937 0.100017)
(3.05794e-05 0.000211183 0.100015)
(1.04349e-05 0.000211818 0.100015)
(-9.7063e-06 0.000211853 0.100015)
(-2.98452e-05 0.000211288 0.100016)
(-4.9992e-05 0.000210112 0.100018)
(-7.01692e-05 0.000208318 0.100021)
(-9.04238e-05 0.000205916 0.100026)
(-0.000110815 0.000202958 0.100032)
(-0.00013138 0.000199554 0.100041)
(-0.000152107 0.000195845 0.100051)
(-0.000172878 0.000191997 0.100062)
(-0.000193347 0.000188082 0.10007)
(-0.00021278 0.000183946 0.100066)
(-0.000229879 0.000178831 0.100016)
(-0.000241645 0.000170507 0.0997691)
(-0.000219255 0.000143526 0.0983315)
(-0.000158824 8.90382e-05 0.0906911)
(0.000166721 8.01458e-05 0.0914979)
(0.000231544 0.000128214 0.098665)
(0.000251453 0.000150049 0.0998568)
(0.000238562 0.000156831 0.100044)
(0.000220558 0.000161013 0.100072)
(0.00020043 0.000164399 0.100066)
(0.000179363 0.00016761 0.100052)
(0.000158002 0.000170792 0.100039)
(0.000136636 0.000173882 0.100028)
(0.000115385 0.000176759 0.100019)
(9.42792e-05 0.000179295 0.100013)
(7.32982e-05 0.000181394 0.100009)
(5.24012e-05 0.000182998 0.100006)
(3.15514e-05 0.00018408 0.100005)
(1.0724e-05 0.000184637 0.100004)
(-1.00968e-05 0.00018467 0.100005)
(-3.09219e-05 0.000184178 0.100006)
(-5.17627e-05 0.000183164 0.100008)
(-7.2649e-05 0.00018163 0.100011)
(-9.36199e-05 0.000179607 0.100016)
(-0.000114713 0.000177151 0.100023)
(-0.000135954 0.000174363 0.100032)
(-0.000157317 0.000171368 0.100044)
(-0.000178678 0.00016829 0.100057)
(-0.000199751 0.000165189 0.100071)
(-0.000219898 0.000161913 0.100077)
(-0.00023793 0.00015784 0.100048)
(-0.000250861 0.000151136 0.0998603)
(-0.000231037 0.00012928 0.0986677)
(-0.00016638 8.09547e-05 0.0914991)
(0.000173385 7.01539e-05 0.0921299)
(0.00024133 0.000111385 0.0989117)
(0.000258931 0.000128886 0.0999245)
(0.000244995 0.000134363 0.100069)
(0.000226171 0.000137761 0.100081)
(0.00020544 0.000140497 0.100067)
(0.000183914 0.000143096 0.10005)
(0.000162108 0.000145668 0.100034)
(0.00014027 0.00014818 0.100022)
(0.000118511 0.000150533 0.100013)
(9.68573e-05 0.000152629 0.100007)
(7.5302e-05 0.000154382 0.100004)
(5.38192e-05 0.000155735 0.100001)
(3.23799e-05 0.000156656 0.0999999)
(1.09625e-05 0.000157134 0.0999994)
(-1.0447e-05 0.000157163 0.0999997)
(-3.18588e-05 0.000156746 0.100001)
(-5.32912e-05 0.000155886 0.100003)
(-7.47637e-05 0.0001546 0.100005)
(-9.63065e-05 0.000152919 0.10001)
(-0.000117949 0.000150905 0.100016)
(-0.000139701 0.000148638 0.100025)
(-0.000161533 0.000146226 0.100038)
(-0.000183341 0.000143757 0.100053)
(-0.000204876 0.00014127 0.100071)
(-0.000225622 0.000138644 0.100084)
(-0.000244468 0.000135354 0.100072)
(-0.000258442 0.000129955 0.0999269)
(-0.000240904 0.000112433 0.0989136)
(-0.000173103 7.09398e-05 0.0921308)
(0.000179018 5.87034e-05 0.0926127)
(0.000249276 9.26755e-05 0.0990924)
(0.00026491 0.00010639 0.0999747)
(0.000250036 0.000110753 0.100087)
(0.000230514 0.000113495 0.100088)
(0.000209298 0.000115734 0.100068)
(0.000187405 0.000117849 0.100048)
(0.00016527 0.000119936 0.100031)
(0.000143093 0.000121971 0.100019)
(0.000120958 0.000123886 0.100011)
(9.88959e-05 0.000125598 0.100005)
(7.69004e-05 0.000127041 0.100002)
(5.49554e-05 0.000128163 0.0999996)
(3.30421e-05 0.000128933 0.0999986)
(1.11454e-05 0.000129333 0.0999982)
(-1.07449e-05 0.000129359 0.0999984)
(-3.26379e-05 0.000129011 0.0999992)
(-5.45427e-05 0.000128297 0.100001)
(-7.64778e-05 0.000127237 0.100003)
(-9.84619e-05 0.000125862 0.100007)
(-0.000120514 0.000124225 0.100013)
(-0.00014264 0.000122399 0.100021)
(-0.000164813 0.000120459 0.100034)
(-0.000186948 0.000118476 0.10005)
(-0.000208848 0.00011647 0.10007)
(-0.000230076 0.000114342 0.10009)
(-0.00024962 0.000111701 0.100089)
(-0.00026452 0.000107416 0.099976)
(-0.000248937 9.36885e-05 0.0990935)
(-0.000178794 5.94654e-05 0.0926134)
(0.000183545 4.61349e-05 0.092971)
(0.000255474 7.25913e-05 0.0992221)
(0.000269504 8.29117e-05 0.100011)
(0.000253842 8.62782e-05 0.100101)
(0.000233737 8.84557e-05 0.100093)
(0.000212125 9.02638e-05 0.10007)
(0.000189953 9.19749e-05 0.100048)
(0.00016758 9.3658e-05 0.10003)
(0.000145162 9.52943e-05 0.100018)
(0.000122766 9.68327e-05 0.10001)
(0.000100411 9.8214e-05 0.100005)
(7.80947e-05 9.93809e-05 0.100002)
(5.58061e-05 0.000100293 0.1)
(3.35341e-05 0.000100921 0.0999996)
(1.1271e-05 0.000101249 0.0999993)
(-1.09883e-05 0.00010127 0.0999995)
(-3.32473e-05 0.000100987 0.1)
(-5.55119e-05 0.000100407 0.100001)
(-7.77898e-05 9.95494e-05 0.100003)
(-0.000100096 9.84447e-05 0.100006)
(-0.00012244 9.71363e-05 0.100011)
(-0.000144827 9.56794e-05 0.100019)
(-0.000167239 9.41353e-05 0.100031)
(-0.000189611 9.25528e-05 0.100048)
(-0.000211788 9.09465e-05 0.10007)
(-0.00023341 8.92441e-05 0.100093)
(-0.000253529 8.71661e-05 0.100101)
(-0.000269215 8.38768e-05 0.100012)
(-0.00025522 7.35523e-05 0.0992224)
(-0.000183377 4.68678e-05 0.0929713)
(0.000186926 3.27408e-05 0.0932241)
(0.000259994 5.15202e-05 0.0993115)
(0.000272804 5.87226e-05 0.100037)
(0.000256524 6.11707e-05 0.100111)
(0.000235969 6.28275e-05 0.100097)
(0.000214056 6.42446e-05 0.100071)
(0.000191676 6.55978e-05 0.100048)
(0.000169138 6.69262e-05 0.100031)
(0.00014656 6.82147e-05 0.100019)
(0.000123992 6.94244e-05 0.100011)
(0.000101442 7.05099e-05 0.100007)
(7.89081e-05 7.14294e-05 0.100004)
(5.63838e-05 7.21491e-05 0.100003)
(3.3863e-05 7.26461e-05 0.100002)
(1.13427e-05 7.29059e-05 0.100002)
(-1.11758e-05 7.29231e-05 0.100002)
(-3.36917e-05 7.26989e-05 0.100002)
(-5.62051e-05 7.22417e-05 0.100003)
(-7.87199e-05 7.15687e-05 0.100004)
(-0.000101242 7.0704e-05 0.100007)
(-0.00012378 6.96843e-05 0.100011)
(-0.00014634 6.85503e-05 0.100019)
(-0.000168909 6.73482e-05 0.100031)
(-0.000191445 6.61139e-05 0.100048)
(-0.000213825 6.48608e-05 0.100071)
(-0.000235744 6.35441e-05 0.100096)
(-0.000256312 6.19832e-05 0.10011)
(-0.000272608 5.96113e-05 0.100036)
(-0.000259822 5.24169e-05 0.099311)
(-0.000186813 3.34366e-05 0.0932241)
(0.000189133 1.87879e-05 0.0933859)
(0.000262892 2.97921e-05 0.099368)
(0.000274873 3.40586e-05 0.100054)
(0.00025817 3.56396e-05 0.100119)
(0.000237308 3.68001e-05 0.100101)
(0.000215191 3.78422e-05 0.100074)
(0.000192676 3.8857e-05 0.10005)
(0.000170034 3.98573e-05 0.100033)
(0.000147363 4.08265e-05 0.100021)
(0.000124694 4.17352e-05 0.100014)
(0.000102032 4.25499e-05 0.100009)
(7.93723e-05 4.32401e-05 0.100007)
(5.67087e-05 4.37811e-05 0.100006)
(3.40392e-05 4.41546e-05 0.100005)
(1.13658e-05 4.43501e-05 0.100005)
(-1.13083e-05 4.43629e-05 0.100005)
(-3.39781e-05 4.41942e-05 0.100005)
(-5.66396e-05 4.38518e-05 0.100006)
(-7.92927e-05 4.33487e-05 0.100007)
(-0.000101941 4.27059e-05 0.100009)
(-0.000124591 4.1948e-05 0.100013)
(-0.000147248 4.1108e-05 0.10002)
(-0.000169909 4.02168e-05 0.100031)
(-0.000192544 3.93035e-05 0.100048)
(-0.000215057 3.83816e-05 0.100072)
(-0.000237177 3.74343e-05 0.100099)
(-0.000258046 3.63645e-05 0.100116)
(-0.00027476 3.48609e-05 0.100052)
(-0.000262794 3.06125e-05 0.0993667)
(-0.000189071 1.94398e-05 0.0933855)
(0.000190151 4.52535e-06 0.0934654)
(0.000264207 7.69904e-06 0.0993964)
(0.000275757 9.13235e-06 0.100064)
(0.000258836 9.87475e-06 0.100124)
(0.000237818 1.05492e-05 0.100105)
(0.0002156 1.1221e-05 0.100077)
(0.000193021 1.19021e-05 0.100053)
(0.000170335 1.25832e-05 0.100035)
(0.000147627 1.3245e-05 0.100024)
(0.000124922 1.38649e-05 0.100017)
(0.000102219 1.44204e-05 0.100013)
(7.95131e-05 1.48908e-05 0.100011)
(5.67987e-05 1.52592e-05 0.10001)
(3.40749e-05 1.55139e-05 0.100009)
(1.13444e-05 1.56469e-05 0.100009)
(-1.13872e-05 1.56554e-05 0.100009)
(-3.41134e-05 1.55407e-05 0.100008)
(-5.68294e-05 1.53088e-05 0.100009)
(-7.95329e-05 1.49696e-05 0.100009)
(-0.000102226 1.45375e-05 0.100011)
(-0.000124915 1.40307e-05 0.100015)
(-0.000147606 1.34696e-05 0.100021)
(-0.000170302 1.28772e-05 0.100033)
(-0.000192978 1.22743e-05 0.10005)
(-0.000215551 1.16776e-05 0.100073)
(-0.000237767 1.10932e-05 0.100101)
(-0.000258788 1.05054e-05 0.10012)
(-0.000275716 9.83822e-06 0.100061)
(-0.000264171 8.43518e-06 0.0993942)
(-0.000190135 5.12741e-06 0.0934646)
(0.000189974 -9.81593e-06 0.0934666)
(0.000263961 -1.44879e-05 0.0993988)
(0.000275483 -1.58575e-05 0.100067)
(0.000258554 -1.5946e-05 0.100127)
(0.000237537 -1.57574e-05 0.100108)
(0.000215321 -1.54594e-05 0.10008)
(0.00019275 -1.51149e-05 0.100056)
(0.000170077 -1.4756e-05 0.100039)
(0.000147386 -1.44031e-05 0.100028)
(0.000124703 -1.40723e-05 0.10002)
(0.000102025 -1.37764e-05 0.100016)
(7.93486e-05 -1.35264e-05 0.100014)
(5.66663e-05 -1.33302e-05 0.100013)
(3.39768e-05 -1.3195e-05 0.100013)
(1.12823e-05 -1.31241e-05 0.100012)
(-1.14125e-05 -1.31195e-05 0.100012)
(-3.41028e-05 -1.31795e-05 0.100012)
(-5.67834e-05 -1.33003e-05 0.100012)
(-7.94537e-05 -1.34751e-05 0.100012)
(-0.000102116 -1.36957e-05 0.100014)
(-0.000124777 -1.39523e-05 0.100017)
(-0.000147445 -1.42336e-05 0.100024)
(-0.000170121 -1.45272e-05 0.100035)
(-0.000192781 -1.48182e-05 0.100052)
(-0.000215342 -1.50876e-05 0.100076)
(-0.000237552 -1.53059e-05 0.100104)
(-0.00025857 -1.5415e-05 0.100122)
(-0.000275501 -1.52517e-05 0.100063)
(-0.000263978 -1.38423e-05 0.0993957)
(-0.000189999 -9.26873e-06 0.0934653)
(0.000188609 -2.40166e-05 0.0933895)
(0.000262162 -3.65055e-05 0.0993751)
(0.000274058 -4.07132e-05 0.100063)
(0.000257333 -4.16483e-05 0.100128)
(0.000236469 -4.19553e-05 0.100111)
(0.000214362 -4.20402e-05 0.100084)
(0.000191871 -4.20427e-05 0.100061)
(0.000169266 -4.20175e-05 0.100043)
(0.000146646 -4.19865e-05 0.100032)
(0.000124041 -4.19574e-05 0.100024)
(0.000101455 -4.19327e-05 0.10002)
(7.88818e-05 -4.19121e-05 0.100018)
(5.6314e-05 -4.18959e-05 0.100017)
(3.37474e-05 -4.18843e-05 0.100016)
(1.1181e-05 -4.1878e-05 0.100016)
(-1.13843e-05 -4.18765e-05 0.100015)
(-3.39455e-05 -4.1879e-05 0.100015)
(-5.65027e-05 -4.18828e-05 0.100015)
(-7.90571e-05 -4.18855e-05 0.100016)
(-0.000101614 -4.18845e-05 0.100017)
(-0.000124182 -4.1879e-05 0.100021)
(-0.000146768 -4.18683e-05 0.100027)
(-0.00016937 -4.18504e-05 0.100038)
(-0.000191959 -4.18183e-05 0.100055)
(-0.000214436 -4.17506e-05 0.100079)
(-0.000236535 -4.15962e-05 0.100106)
(-0.000257396 -4.12154e-05 0.100123)
(-0.00027412 -4.02099e-05 0.100058)
(-0.000262218 -3.5953e-05 0.0993712)
(-0.000188668 -2.35303e-05 0.0933877)
(0.00018607 -3.7849e-05 0.0932299)
(0.000258797 -5.80839e-05 0.099323)
(0.000271467 -6.52379e-05 0.100052)
(0.000255151 -6.70557e-05 0.100127)
(0.000234592 -6.78792e-05 0.100114)
(0.000212696 -6.83623e-05 0.100088)
(0.000190356 -6.87308e-05 0.100065)
(0.000167878 -6.90613e-05 0.100048)
(0.000145385 -6.93773e-05 0.100036)
(0.00012292 -6.96753e-05 0.100029)
(0.000100495 -6.99444e-05 0.100024)
(7.81037e-05 -7.0172e-05 0.100022)
(5.5736e-05 -7.03499e-05 0.100021)
(3.33835e-05 -7.04704e-05 0.10002)
(1.10396e-05 -7.05329e-05 0.100019)
(-1.12998e-05 -7.05339e-05 0.100019)
(-3.36383e-05 -7.04734e-05 0.100019)
(-5.59799e-05 -7.03505e-05 0.100018)
(-7.83321e-05 -7.01657e-05 0.100019)
(-0.000100705 -6.9924e-05 0.100021)
(-0.00012311 -6.96328e-05 0.100024)
(-0.000145553 -6.93042e-05 0.100031)
(-0.000168026 -6.89501e-05 0.100042)
(-0.000190484 -6.8572e-05 0.100059)
(-0.000212808 -6.81502e-05 0.100082)
(-0.000234692 -6.76063e-05 0.100107)
(-0.000255244 -6.67186e-05 0.10012)
(-0.000271558 -6.48337e-05 0.100046)
(-0.000258879 -5.76249e-05 0.0993183)
(-0.000186153 -3.74269e-05 0.0932276)
(0.00018238 -5.10655e-05 0.0929789)
(0.00025384 -7.89337e-05 0.0992378)
(0.000267676 -8.92231e-05 0.100031)
(0.000251963 -9.19824e-05 0.100122)
(0.000231854 -9.33562e-05 0.100115)
(0.000210268 -9.42657e-05 0.100092)
(0.000188149 -9.50306e-05 0.10007)
(0.00016586 -9.57567e-05 0.100053)
(0.000143556 -9.64596e-05 0.100041)
(0.000121302 -9.71244e-05 0.100033)
(9.91166e-05 -9.77214e-05 0.100029)
(7.69931e-05 -9.82258e-05 0.100026)
(5.49195e-05 -9.86155e-05 0.100024)
(3.28784e-05 -9.88829e-05 0.100024)
(1.08561e-05 -9.90178e-05 0.100023)
(-1.11572e-05 -9.90217e-05 0.100022)
(-3.31731e-05 -9.88912e-05 0.100022)
(-5.52019e-05 -9.86274e-05 0.100022)
(-7.7259e-05 -9.8235e-05 0.100023)
(-9.9361e-05 -9.77229e-05 0.100025)
(-0.000121523 -9.71107e-05 0.100029)
(-0.000143753 -9.64247e-05 0.100036)
(-0.000166033 -9.56915e-05 0.100047)
(-0.0001883 -9.49304e-05 0.100064)
(-0.000210399 -9.41213e-05 0.100085)
(-0.000231971 -9.31624e-05 0.100107)
(-0.000252072 -9.17331e-05 0.100115)
(-0.00026778 -8.89122e-05 0.100024)
(-0.000253936 -7.85649e-05 0.0992324)
(-0.000182479 -5.07079e-05 0.0929762)
(0.000177577 -6.34028e-05 0.0926226)
(0.000247248 -9.87298e-05 0.0991117)
(0.000262632 -0.000112435 0.0999986)
(0.000247696 -0.000116225 0.100113)
(0.000228169 -0.000118203 0.100114)
(0.000206985 -0.000119588 0.100095)
(0.00018516 -0.000120806 0.100075)
(0.000163129 -0.000121986 0.100059)
(0.000141093 -0.000123138 0.100047)
(0.000119135 -0.000124225 0.100039)
(9.72815e-05 -0.000125197 0.100034)
(7.55278e-05 -0.000126012 0.100031)
(5.3849e-05 -0.000126641 0.100029)
(3.22234e-05 -0.000127066 0.100028)
(1.0629e-05 -0.000127283 0.100027)
(-1.09552e-05 -0.000127287 0.100027)
(-3.25426e-05 -0.000127079 0.100027)
(-5.41551e-05 -0.00012666 0.100027)
(-7.58138e-05 -0.000126032 0.100028)
(-9.75449e-05 -0.000125214 0.10003)
(-0.000119373 -0.000124233 0.100034)
(-0.000141302 -0.000123132 0.100041)
(-0.000163312 -0.00012196 0.100053)
(-0.000185318 -0.000120752 0.100068)
(-0.00020712 -0.000119502 0.100088)
(-0.000228288 -0.000118077 0.100106)
(-0.000247804 -0.000116053 0.100105)
(-0.000262738 -0.00011221 0.0999913)
(-0.000247344 -9.84437e-05 0.0991058)
(-0.000177684 -6.31074e-05 0.0926196)
(0.000171709 -7.45736e-05 0.0921414)
(0.000238962 -0.000117087 0.098934)
(0.000256262 -0.000134613 0.0999518)
(0.000242244 -0.000139559 0.100098)
(0.000223418 -0.000142239 0.100111)
(0.000202726 -0.000144177 0.100098)
(0.000181279 -0.000145935 0.10008)
(0.000159596 -0.00014766 0.100065)
(0.000137922 -0.000149345 0.100054)
(0.000116368 -0.000150926 0.100046)
(9.496e-05 -0.00015233 0.100041)
(7.36856e-05 -0.000153497 0.100037)
(5.25171e-05 -0.00015439 0.100035)
(3.14167e-05 -0.00015499 0.100034)
(1.03541e-05 -0.000155294 0.100033)
(-1.06912e-05 -0.000155298 0.100033)
(-3.17463e-05 -0.000155006 0.100033)
(-5.28313e-05 -0.000154413 0.100033)
(-7.39798e-05 -0.000153526 0.100034)
(-9.52284e-05 -0.000152357 0.100036)
(-0.000116607 -0.00015095 0.100041)
(-0.000138134 -0.00014936 0.100048)
(-0.000159775 -0.000147662 0.100059)
(-0.000181431 -0.000145919 0.100073)
(-0.000202853 -0.000144136 0.10009)
(-0.000223524 -0.00014217 0.100103)
(-0.000242342 -0.000139451 0.10009)
(-0.000256351 -0.00013446 0.0999443)
(-0.00023905 -0.000116874 0.0989278)
(-0.000171816 -7.43331e-05 0.0921382)
(0.00016486 -8.42422e-05 0.091511)
(0.000228904 -0.000133509 0.0986895)
(0.00024845 -0.000155409 0.0998866)
(0.000235472 -0.000161714 0.100076)
(0.000217458 -0.000165236 0.100104)
(0.000197374 -0.000167882 0.100099)
(0.000176399 -0.000170317 0.100086)
(0.000155173 -0.000172713 0.100073)
(0.00013399 -0.00017504 0.100062)
(0.000112968 -0.000177204 0.100055)
(9.21369e-05 -0.000179103 0.10005)
(7.14728e-05 -0.000180666 0.100047)
(5.09294e-05 -0.000181845 0.100045)
(3.0463e-05 -0.000182634 0.100043)
(1.00384e-05 -0.000183027 0.100042)
(-1.03735e-05 -0.000183034 0.100042)
(-3.07897e-05 -0.00018265 0.100042)
(-5.1241e-05 -0.000181873 0.100042)
(-7.17622e-05 -0.000180697 0.100043)
(-9.23991e-05 -0.000179138 0.100046)
(-0.000113202 -0.000177236 0.10005)
(-0.000134189 -0.00017507 0.100057)
(-0.000155342 -0.000172734 0.100066)
(-0.000176534 -0.000170328 0.100079)
(-0.000197484 -0.000167876 0.100091)
(-0.000217547 -0.000165207 0.100097)
(-0.000235543 -0.000161658 0.100068)
(-0.000248522 -0.000155313 0.099879)
(-0.000228972 -0.000133353 0.0986832)
(-0.000164963 -8.40479e-05 0.0915076)
(0.000157239 -9.19416e-05 0.0907044)
(0.000217002 -0.000147301 0.0983538)
(0.000239079 -0.000174383 0.0997953)
(0.000227247 -0.000182378 0.100043)
(0.000210174 -0.000186994 0.100093)
(0.0001908 -0.000190569 0.100097)
(0.000170433 -0.000193872 0.10009)
(0.000149808 -0.000197103 0.100081)
(0.000129268 -0.000200204 0.100073)
(0.000108943 -0.000203047 0.100066)
(8.88391e-05 -0.000205508 0.100062)
(6.89195e-05 -0.000207499 0.10006)
(4.912e-05 -0.000208988 0.100058)
(2.9387e-05 -0.000209965 0.100057)
(9.6849e-06 -0.000210452 0.100056)
(-1.00059e-05 -0.000210458 0.100055)
(-2.97008e-05 -0.000209982 0.100055)
(-4.94178e-05 -0.000209014 0.100055)
(-6.91953e-05 -0.000207532 0.100056)
(-8.90888e-05 -0.000205544 0.100058)
(-0.00010916 -0.000203085 0.100061)
(-0.000129454 -0.00020024 0.100067)
(-0.000149957 -0.000197138 0.100074)
(-0.000170551 -0.0001939 0.100083)
(-0.000190887 -0.000190588 0.10009)
(-0.000210236 -0.000186997 0.100085)
(-0.0002273 -0.000182357 0.100035)
(-0.000239116 -0.000174331 0.0997879)
(-0.000217054 -0.000147188 0.0983477)
(-0.000157332 -9.17769e-05 0.0907007)
(0.000149289 -9.7292e-05 0.0896703)
(0.000203088 -0.000157559 0.0978791)
(0.000227915 -0.000190964 0.0996616)
(0.000217399 -0.000201149 0.0999915)
(0.000201434 -0.000207284 0.100072)
(0.000182942 -0.000212098 0.100091)
(0.000163333 -0.000216522 0.100092)
(0.000143483 -0.000220781 0.100088)
(0.000123781 -0.0002248 0.100084)
(0.000104335 -0.000228421 0.10008)
(8.51342e-05 -0.000231494 0.100078)
(6.6096e-05 -0.000233943 0.100077)
(4.71459e-05 -0.000235737 0.100076)
(2.82269e-05 -0.000236904 0.100075)
(9.3087e-06 -0.000237477 0.100075)
(-9.60679e-06 -0.000237481 0.100074)
(-2.85166e-05 -0.00023692 0.100074)
(-4.74225e-05 -0.00023576 0.100073)
(-6.63512e-05 -0.000233974 0.100073)
(-8.53636e-05 -0.000231529 0.100074)
(-0.000104536 -0.000228458 0.100075)
(-0.000123947 -0.000224841 0.100078)
(-0.000143616 -0.000220823 0.100082)
(-0.000163428 -0.000216564 0.100086)
(-0.000183009 -0.000212135 0.100084)
(-0.000201474 -0.000207305 0.100064)
(-0.000217417 -0.000201161 0.0999844)
(-0.000227944 -0.000190931 0.0996548)
(-0.00020312 -0.000157474 0.0978734)
(-0.000149383 -9.71349e-05 0.0896667)
(0.000140709 -9.97741e-05 0.0883109)
(0.000186781 -0.000163056 0.0971742)
(0.000214647 -0.000204011 0.0994516)
(0.000205775 -0.000217348 0.099908)
(0.000191163 -0.000225657 0.100034)
(0.000173701 -0.000232185 0.100075)
(0.000155025 -0.000238048 0.100087)
(0.000136164 -0.000243568 0.100091)
(0.000117535 -0.000248669 0.100093)
(9.92142e-05 -0.000253152 0.100094)
(8.11009e-05 -0.00025688 0.100096)
(6.30869e-05 -0.000259782 0.100097)
(4.50788e-05 -0.00026187 0.100098)
(2.70242e-05 -0.000263207 0.100098)
(8.92695e-06 -0.000263857 0.100098)
(-9.19127e-06 -0.000263862 0.100098)
(-2.7283e-05 -0.00026322 0.100097)
(-4.53241e-05 -0.000261892 0.100095)
(-6.33164e-05 -0.000259807 0.100093)
(-8.13061e-05 -0.000256911 0.100091)
(-9.93925e-05 -0.000253186 0.100089)
(-0.000117685 -0.000248706 0.100087)
(-0.000136276 -0.000243614 0.100085)
(-0.000155108 -0.000238097 0.100081)
(-0.000173745 -0.00023223 0.100068)
(-0.000191186 -0.000225703 0.100027)
(-0.000205787 -0.000217356 0.0999013)
(-0.00021465 -0.000203999 0.0994453)
(-0.000186829 -0.000162971 0.0971692)
(-0.000140816 -9.96043e-05 0.0883075)
(0.000131587 -0.000100283 0.0865024)
(0.000168554 -0.000159273 0.0960557)
(0.000199154 -0.000211666 0.0990917)
(0.000192324 -0.000230116 0.0997652)
(0.000179061 -0.000241336 0.0999643)
(0.000162651 -0.000250066 0.100032)
(0.000145097 -0.000257776 0.100061)
(0.00012755 -0.000264858 0.100077)
(0.000110395 -0.000271221 0.100089)
(9.35268e-05 -0.000276673 0.100099)
(7.67549e-05 -0.000281075 0.100108)
(5.99259e-05 -0.00028441 0.100114)
(4.29436e-05 -0.000286773 0.100118)
(2.58018e-05 -0.000288258 0.100121)
(8.54082e-06 -0.000288976 0.100122)
(-8.76063e-06 -0.000288982 0.100121)
(-2.60188e-05 -0.000288268 0.100119)
(-4.31506e-05 -0.000286789 0.100115)
(-6.01168e-05 -0.000284434 0.10011)
(-7.69318e-05 -0.000281097 0.100103)
(-9.36798e-05 -0.000276702 0.100094)
(-0.000110522 -0.000271256 0.100084)
(-0.000127652 -0.000264901 0.100071)
(-0.000145157 -0.00025783 0.100054)
(-0.000162694 -0.000250128 0.100026)
(-0.000179064 -0.000241377 0.0999576)
(-0.000192311 -0.000230153 0.0997587)
(-0.00019916 -0.00021165 0.0990859)
(-0.000168581 -0.000159178 0.0960514)
(-0.000131694 -0.000100114 0.0864993)
(0.000131354 -7.31456e-05 0.0839964)
(0.000147233 -0.000148954 0.0941178)
(0.00018063 -0.000216527 0.0984147)
(0.000176326 -0.000238288 0.0994947)
(0.000163562 -0.000252747 0.0997947)
(0.000147902 -0.000264299 0.0999005)
(0.000131981 -0.000274378 0.0999586)
(0.000116588 -0.000283368 0.100002)
(0.000101653 -0.000291149 0.100036)
(8.68325e-05 -0.000297576 0.100064)
(7.18076e-05 -0.000302596 0.100085)
(5.64e-05 -0.000306331 0.100101)
(4.06016e-05 -0.000308926 0.100112)
(2.44736e-05 -0.000310559 0.100119)
(8.12618e-06 -0.000311344 0.100122)
(-8.28893e-06 -0.000311341 0.100122)
(-2.46295e-05 -0.000310572 0.100117)
(-4.07565e-05 -0.000308937 0.100109)
(-5.65442e-05 -0.000306347 0.100097)
(-7.19378e-05 -0.000302618 0.10008)
(-8.69529e-05 -0.000297593 0.100058)
(-0.000101752 -0.000291181 0.10003)
(-0.000116663 -0.000283408 0.0999955)
(-0.000132041 -0.000274439 0.0999521)
(-0.000147913 -0.000264363 0.0998938)
(-0.000163556 -0.000252834 0.099788)
(-0.00017633 -0.000238322 0.0994882)
(-0.000180576 -0.00021654 0.0984091)
(-0.000147258 -0.000148893 0.0941141)