/*--------------------------------*- C++ -*----------------------------------*\
| =========                 |                                                 |
| \\      /  F ield         | OpenFOAM: The Open Source CFD Toolbox           |
|  \\    /   O peration     | Version:  2312                                  |
|   \\  /    A nd           | Website:  www.openfoam.com                      |
|    \\/     M anipulation  |                                                 |
\*---------------------------------------------------------------------------*/
FoamFile
{
    version     2.0;
    format      ascii;
    arch        "LSB;label=32;scalar=64";
    class       volScalarField;
    location    "850";
    object      alphat;
}
// * * * * * * * * * * * * * * * * * * * * * * * * * * * * * * * * * * * * * //

dimensions      [1 -1 -1 0 0 0 0];

internalField   nonuniform List<scalar> 
27000
(
0.00395041
0.0067058
0.00936825
0.0117528
0.0140703
0.0162332
0.0181965
0.0198548
0.0212812
0.0225003
0.0235127
0.0243141
0.0249089
0.0253036
0.0255005
0.0255005
0.0253035
0.0249087
0.0243139
0.0235123
0.0224999
0.0212808
0.0198541
0.0181954
0.0162314
0.0140675
0.0117487
0.0093632
0.00670117
0.00394791
0.00574988
0.00127926
0.00515703
0.00907596
0.0131501
0.017017
0.0206671
0.0240582
0.0271261
0.0298485
0.032196
0.0341427
0.0356539
0.0366852
0.0372072
0.0372062
0.0366824
0.0356498
0.034138
0.0321916
0.0298449
0.0271227
0.0240543
0.0206626
0.0170127
0.0131452
0.00907205
0.00515319
0.00127718
0.005747
0.00922675
0.00713464
0.0145589
0.0261525
0.0368257
0.046144
0.0546535
0.0626076
0.0698365
0.076209
0.0816431
0.0860828
0.0894812
0.0917835
0.0929463
0.0929488
0.0917915
0.0894971
0.0861102
0.0816872
0.0762766
0.0699207
0.0626987
0.0547408
0.0462205
0.0368863
0.0262076
0.0145837
0.00712096
0.00922267
0.0121593
0.0108447
0.0261197
0.0526324
0.0781265
0.0962177
0.109715
0.120747
0.130012
0.137694
0.143978
0.148947
0.15265
0.155115
0.156349
0.156356
0.155137
0.152691
0.149014
0.144077
0.137826
0.13017
0.120912
0.109865
0.0963432
0.0782495
0.0527727
0.026193
0.0108365
0.0121566
0.0149299
0.0144791
0.0369342
0.076215
0.113176
0.139012
0.155888
0.167762
0.176636
0.183059
0.188034
0.191859
0.194641
0.196463
0.197369
0.197377
0.19649
0.194689
0.191932
0.188131
0.183167
0.176774
0.167912
0.156022
0.139144
0.113336
0.0763949
0.0370239
0.0144735
0.0149289
0.017496
0.0184119
0.0477515
0.0953173
0.137836
0.167267
0.185379
0.196775
0.204289
0.209353
0.212884
0.215395
0.217136
0.218244
0.218787
0.218795
0.218268
0.217179
0.215457
0.212964
0.209447
0.204397
0.196888
0.185501
0.167435
0.138024
0.0955058
0.0478433
0.0184076
0.0174965
0.0198333
0.0225477
0.0586064
0.111595
0.155836
0.185166
0.202878
0.213238
0.219375
0.223092
0.225406
0.226885
0.227829
0.228398
0.228669
0.228676
0.228419
0.227865
0.226935
0.22547
0.223166
0.219457
0.213329
0.202987
0.18531
0.156008
0.111761
0.0586737
0.0225394
0.019835
0.0219261
0.0267268
0.0690961
0.125656
0.169976
0.197442
0.213445
0.222331
0.227157
0.229759
0.231163
0.231926
0.232342
0.232563
0.232662
0.232668
0.232581
0.232372
0.231967
0.231214
0.229817
0.227221
0.222403
0.213533
0.197553
0.170099
0.125779
0.0691401
0.0267149
0.0219293
0.0237422
0.0308346
0.0788866
0.137662
0.181057
0.206162
0.220084
0.227387
0.231035
0.232762
0.233524
0.233824
0.233921
0.233941
0.233943
0.233948
0.233957
0.233946
0.233858
0.233564
0.232806
0.231082
0.227439
0.220145
0.206234
0.18113
0.137738
0.0789053
0.0308189
0.0237461
0.0252979
0.0347124
0.0877691
0.147706
0.188848
0.212176
0.224304
0.230228
0.23291
0.233985
0.234315
0.234335
0.234256
0.234173
0.234127
0.234131
0.234185
0.234276
0.234361
0.234344
0.234014
0.232939
0.230258
0.224337
0.212216
0.188893
0.14774
0.0877637
0.034693
0.0253022
0.026594
0.038205
0.0955325
0.156123
0.195332
0.216576
0.227077
0.231856
0.23379
0.2344
0.234455
0.234318
0.234153
0.234026
0.233961
0.233965
0.234036
0.234167
0.234335
0.234472
0.234415
0.233801
0.231865
0.227084
0.216585
0.195341
0.15612
0.0955058
0.0381822
0.0265987
0.0276304
0.041177
0.101963
0.162854
0.200391
0.219821
0.228949
0.232818
0.234193
0.234486
0.234371
0.234154
0.233955
0.233818
0.23375
0.233752
0.233824
0.233964
0.234162
0.234378
0.234488
0.234189
0.232807
0.228933
0.219802
0.200368
0.16282
0.101919
0.0411511
0.0276354
0.0284071
0.0435133
0.10691
0.167935
0.204092
0.222109
0.230193
0.233392
0.234376
0.234461
0.234248
0.233994
0.233789
0.233654
0.23359
0.233591
0.233657
0.233792
0.233996
0.234246
0.234452
0.234359
0.233366
0.23016
0.22207
0.204044
0.167871
0.106853
0.0434849
0.0284125
0.0289246
0.0451231
0.110264
0.171334
0.20651
0.223566
0.230956
0.233719
0.234457
0.234417
0.234153
0.233885
0.233682
0.233555
0.233495
0.233496
0.233556
0.233682
0.233882
0.234144
0.234401
0.234431
0.233683
0.230912
0.223514
0.206448
0.171259
0.110201
0.0450931
0.0289301
0.0291829
0.0459441
0.111958
0.173032
0.207702
0.224275
0.23132
0.233869
0.234489
0.234392
0.234106
0.233834
0.233635
0.233512
0.233455
0.233455
0.233512
0.233632
0.233828
0.234093
0.234372
0.234459
0.233829
0.231271
0.224218
0.207636
0.172953
0.111892
0.0459135
0.0291886
0.0291824
0.045945
0.111961
0.173035
0.207705
0.224277
0.231322
0.233872
0.234492
0.234396
0.23411
0.233838
0.233639
0.233516
0.233459
0.233459
0.233516
0.233636
0.233832
0.234097
0.234375
0.234462
0.233832
0.231273
0.22422
0.207639
0.172957
0.111897
0.0459146
0.0291881
0.028923
0.0451257
0.110275
0.171346
0.206519
0.223574
0.230964
0.233728
0.234467
0.234429
0.234165
0.233897
0.233695
0.233567
0.233507
0.233508
0.233568
0.233694
0.233893
0.234156
0.234412
0.234441
0.233693
0.23092
0.223522
0.206458
0.171272
0.110214
0.0450961
0.0289285
0.0284046
0.0435172
0.106929
0.167955
0.204108
0.222123
0.230207
0.233407
0.234393
0.234479
0.234267
0.234013
0.233808
0.233673
0.233608
0.233609
0.233675
0.23381
0.234014
0.234264
0.234469
0.234375
0.233381
0.230173
0.222083
0.20406
0.167893
0.106874
0.0434896
0.0284099
0.0276271
0.0411818
0.101991
0.162885
0.200417
0.219844
0.228971
0.23284
0.234216
0.23451
0.234396
0.234178
0.233979
0.233841
0.233773
0.233775
0.233846
0.233987
0.234185
0.234401
0.23451
0.23421
0.232826
0.228951
0.21982
0.200389
0.162848
0.101947
0.0411569
0.0276319
0.0265901
0.0382101
0.0955685
0.156167
0.195372
0.21661
0.227108
0.231886
0.233819
0.234429
0.234484
0.234346
0.23418
0.234052
0.233987
0.23399
0.234061
0.234192
0.234361
0.234498
0.23444
0.233826
0.231887
0.227106
0.216607
0.195367
0.156154
0.0955401
0.0381885
0.0265945
0.0252936
0.0347171
0.087813
0.147766
0.188905
0.212224
0.224345
0.230265
0.232944
0.234017
0.234346
0.234365
0.234284
0.234199
0.234152
0.234155
0.23421
0.234301
0.234387
0.23437
0.234041
0.232966
0.230284
0.224363
0.212244
0.188926
0.147781
0.0878015
0.0346991
0.0252974
0.0237378
0.0308384
0.0789374
0.13774
0.181134
0.206228
0.220138
0.227432
0.231075
0.232798
0.233556
0.233854
0.233948
0.233965
0.233965
0.23397
0.233979
0.23397
0.233883
0.23359
0.232834
0.231111
0.227469
0.220176
0.206271
0.181177
0.137784
0.0789441
0.0308239
0.0237409
0.0219217
0.0267288
0.0691522
0.125754
0.170076
0.197527
0.213512
0.222384
0.227202
0.229798
0.231196
0.231954
0.232366
0.232584
0.232681
0.232686
0.2326
0.232393
0.23199
0.23124
0.229846
0.227253
0.222437
0.213571
0.197598
0.170155
0.125832
0.069178
0.0267175
0.021924
0.0198294
0.0225475
0.0586674
0.111713
0.155959
0.185271
0.20296
0.213304
0.219429
0.223137
0.225444
0.226915
0.227854
0.228418
0.228688
0.228694
0.228437
0.227885
0.226959
0.225498
0.2232
0.219496
0.213373
0.203037
0.185367
0.156072
0.111822
0.0587113
0.0225394
0.0198304
0.0174923
0.0184111
0.0478172
0.095449
0.137977
0.167394
0.185476
0.196858
0.204361
0.209412
0.212932
0.215433
0.217168
0.21827
0.218811
0.218818
0.218291
0.217204
0.215486
0.213
0.209492
0.20445
0.196947
0.185568
0.167513
0.138104
0.0955762
0.0478794
0.0184064
0.0174923
0.0149262
0.0144754
0.0369938
0.0763464
0.113315
0.139135
0.156
0.167872
0.176734
0.183135
0.1881
0.191915
0.194688
0.196506
0.197409
0.197416
0.196529
0.194729
0.191976
0.188182
0.183231
0.17685
0.167995
0.156107
0.139235
0.113429
0.0764712
0.0370554
0.01447
0.0149251
0.0121557
0.0108384
0.0261648
0.0527392
0.0782402
0.0963302
0.109831
0.120863
0.13012
0.137789
0.14406
0.149019
0.152717
0.155179
0.156413
0.15642
0.155201
0.152756
0.149079
0.144145
0.1379
0.13025
0.120998
0.109954
0.0964328
0.0783362
0.0528429
0.0262167
0.0108314
0.0121534
0.00922343
0.00712666
0.0145714
0.0261926
0.0368757
0.0462037
0.054719
0.0626758
0.0699033
0.0762714
0.0816998
0.08614
0.089541
0.0918456
0.0930103
0.0930142
0.0918577
0.0895623
0.0861722
0.0817458
0.0763355
0.0699794
0.0627561
0.0547952
0.0462691
0.0369269
0.0262367
0.0145902
0.00711665
0.00922031
0.00574783
0.00127788
0.00515331
0.00907227
0.0131462
0.0170135
0.0206636
0.0240553
0.027124
0.0298473
0.0321959
0.0341461
0.0356598
0.0366927
0.0372159
0.0372159
0.0366926
0.0356598
0.0341463
0.0321966
0.0298485
0.0271252
0.0240557
0.020663
0.0170122
0.0131437
0.00906964
0.00514994
0.00127626
0.00574538
0.00394893
0.00670293
0.00936457
0.0117489
0.0140662
0.0162288
0.0181918
0.0198497
0.0212758
0.0224944
0.0235062
0.0243063
0.0249006
0.025295
0.0254917
0.0254916
0.0252945
0.0248999
0.0243054
0.0235051
0.0224932
0.0212745
0.0198483
0.0181901
0.0162267
0.0140635
0.0117454
0.00936051
0.00669934
0.003947
0.00356559
0.00609393
0.0086942
0.0110598
0.0134259
0.0156642
0.0177298
0.019509
0.0210508
0.0223745
0.0234828
0.0243842
0.0250702
0.0255295
0.0257594
0.025759
0.0255283
0.0250681
0.0243813
0.0234794
0.0223702
0.0210455
0.0195018
0.0177229
0.0156598
0.013425
0.0110631
0.00870099
0.00610204
0.00357047
0.00512864
0.00162472
0.00748485
0.011069
0.0146505
0.0176632
0.0202647
0.0226768
0.0247748
0.0265768
0.0280879
0.0292968
0.0301969
0.0307958
0.0310957
0.0310961
0.0307966
0.0301972
0.0292948
0.0280821
0.0265653
0.0247597
0.0226612
0.0202527
0.0176749
0.0146674
0.0110842
0.007493
0.00163161
0.00513571
0.00869116
0.010266
0.0132106
0.0166942
0.0218642
0.0273122
0.0323477
0.036774
0.0408158
0.044436
0.0475011
0.049972
0.051844
0.0531033
0.05374
0.0537474
0.0531253
0.0518789
0.0500148
0.0475386
0.0444151
0.0407715
0.0367208
0.0322984
0.0272712
0.0218386
0.0166748
0.0132098
0.0103163
0.00869922
0.0115674
0.0134715
0.0178324
0.0255406
0.0356276
0.0462644
0.0557942
0.0641524
0.0715635
0.0782274
0.0839381
0.088529
0.0919603
0.0942327
0.0953707
0.0953873
0.0942808
0.0920342
0.088615
0.0840083
0.0782507
0.0715292
0.0640797
0.0556857
0.0461435
0.03552
0.0254883
0.0178205
0.0135102
0.0115713
0.0144137
0.0159423
0.0227236
0.0355824
0.0538684
0.0730373
0.0891989
0.102004
0.112426
0.121399
0.128709
0.134396
0.138545
0.141179
0.142465
0.142475
0.141208
0.138592
0.134448
0.128734
0.121386
0.11234
0.101846
0.0889616
0.0727895
0.0537082
0.0354904
0.0226729
0.0159742
0.0144133
0.0171252
0.0181393
0.0285184
0.0467042
0.0726373
0.0991162
0.121366
0.137549
0.149295
0.158304
0.165272
0.170528
0.174284
0.176677
0.177841
0.177845
0.176689
0.1743
0.170535
0.165251
0.158243
0.149189
0.137395
0.121135
0.0988642
0.0724372
0.0466136
0.0284515
0.0181644
0.0171218
0.0196399
0.0205557
0.0338618
0.0579865
0.0902341
0.121655
0.146197
0.163628
0.175742
0.184319
0.190511
0.194961
0.198041
0.199975
0.200906
0.200906
0.199973
0.198034
0.194941
0.19047
0.184253
0.175652
0.163515
0.146048
0.121469
0.0901012
0.0579455
0.033824
0.0205468
0.0196361
0.0219345
0.0230523
0.0389849
0.0686556
0.105543
0.139206
0.16425
0.181665
0.1934
0.201281
0.206622
0.210245
0.212643
0.214106
0.214798
0.214795
0.214095
0.212623
0.210211
0.206573
0.201218
0.193327
0.181583
0.164157
0.139114
0.105501
0.0686803
0.0389612
0.0230412
0.02193
0.0240346
0.0253801
0.0439083
0.0786777
0.118689
0.152792
0.177365
0.194006
0.204895
0.211905
0.216399
0.219274
0.221077
0.222132
0.222618
0.222613
0.222116
0.221049
0.219234
0.216349
0.211847
0.204835
0.193948
0.177312
0.152761
0.118715
0.0787436
0.0438985
0.025371
0.0240309
0.0258762
0.0274729
0.0483755
0.08742
0.129991
0.163497
0.186993
0.202491
0.212326
0.218411
0.222116
0.224345
0.22566
0.226389
0.226712
0.226705
0.226371
0.225629
0.224304
0.222068
0.218361
0.212279
0.202452
0.186968
0.163496
0.130028
0.0874997
0.0483783
0.027467
0.0258737
0.0274372
0.0292968
0.0522593
0.0946149
0.138434
0.171571
0.193992
0.208325
0.21712
0.222341
0.225357
0.227057
0.227989
0.22847
0.228671
0.228665
0.228452
0.227959
0.227019
0.225315
0.222301
0.217087
0.208305
0.193989
0.171592
0.138485
0.0946947
0.0522726
0.0292938
0.0274356
0.0287024
0.0308136
0.0554891
0.10036
0.14483
0.177505
0.198978
0.212294
0.22019
0.224685
0.227143
0.228433
0.22908
0.229383
0.229498
0.229492
0.229366
0.229055
0.228402
0.22711
0.224656
0.22017
0.212288
0.19899
0.177537
0.144883
0.100428
0.0555083
0.0308128
0.0287016
0.0296606
0.0319885
0.0580057
0.104743
0.149518
0.181713
0.202403
0.214913
0.222111
0.226053
0.228098
0.229093
0.229541
0.229723
0.229781
0.229776
0.229709
0.22952
0.229068
0.228073
0.226034
0.222102
0.214918
0.202422
0.181746
0.149561
0.104784
0.0580232
0.0319888
0.0296603
0.0303038
0.0327907
0.0597299
0.107711
0.152619
0.184428
0.204555
0.216508
0.223231
0.226804
0.228578
0.229385
0.229709
0.229817
0.229841
0.229837
0.229805
0.229692
0.229365
0.22856
0.226792
0.223229
0.216518
0.204577
0.184458
0.152652
0.107741
0.0597455
0.0327913
0.0303037
0.0306268
0.0331979
0.0606067
0.109206
0.154165
0.185763
0.205596
0.217263
0.223747
0.227135
0.228775
0.229491
0.229756
0.229829
0.229837
0.229834
0.229819
0.229741
0.229474
0.228761
0.227126
0.223748
0.217275
0.205618
0.18579
0.154192
0.109229
0.0606197
0.033198
0.0306267
0.0306269
0.0331966
0.0606058
0.109207
0.154167
0.185765
0.205597
0.217263
0.223745
0.227132
0.228772
0.229487
0.229752
0.229825
0.229833
0.22983
0.229815
0.229738
0.229471
0.228758
0.227124
0.223746
0.217273
0.205617
0.185789
0.154192
0.109228
0.0606176
0.0331965
0.0306267
0.0303042
0.0327865
0.0597269
0.107714
0.152625
0.184433
0.204557
0.216506
0.223226
0.226795
0.228567
0.229373
0.229697
0.229805
0.22983
0.229826
0.229794
0.229682
0.229355
0.228551
0.226784
0.223223
0.216513
0.204574
0.184457
0.152651
0.107738
0.0597389
0.0327868
0.0303038
0.0296611
0.0319817
0.0580001
0.104747
0.149527
0.18172
0.202405
0.214909
0.222102
0.22604
0.228081
0.229075
0.229523
0.229705
0.229763
0.229759
0.229692
0.229505
0.229053
0.228059
0.226022
0.222092
0.21491
0.202417
0.181743
0.149557
0.104778
0.0580121
0.0319816
0.0296604
0.028703
0.0308042
0.0554796
0.100364
0.144839
0.177512
0.198979
0.212288
0.220178
0.224669
0.227123
0.228412
0.229058
0.229361
0.229477
0.229472
0.229347
0.229036
0.228385
0.227094
0.224642
0.220159
0.212279
0.198983
0.177531
0.144875
0.100414
0.0554909
0.030803
0.0287018
0.0274377
0.029285
0.0522429
0.0946188
0.138441
0.171575
0.193991
0.208318
0.217107
0.222323
0.225336
0.227034
0.227966
0.228448
0.22865
0.228645
0.228432
0.227941
0.227002
0.2253
0.222288
0.217076
0.208296
0.193981
0.171582
0.138471
0.0946722
0.0522476
0.0292818
0.027436
0.0258767
0.0274594
0.0483548
0.087423
0.129993
0.163496
0.186988
0.202482
0.212314
0.218395
0.222098
0.224327
0.225642
0.226372
0.226695
0.22669
0.226355
0.225615
0.224291
0.222056
0.218351
0.212271
0.202446
0.186961
0.163485
0.13001
0.087472
0.0483499
0.0274536
0.0258743
0.0240349
0.0253656
0.0438845
0.0786769
0.118683
0.152782
0.177354
0.193997
0.204884
0.211893
0.216388
0.219263
0.221068
0.222124
0.22261
0.222605
0.222109
0.221042
0.219227
0.216343
0.211843
0.204832
0.193945
0.177306
0.152748
0.118689
0.0787124
0.0438696
0.0253571
0.0240318
0.0219346
0.0230383
0.0389583
0.0686438
0.105517
0.139178
0.164231
0.181653
0.193392
0.201276
0.206619
0.210246
0.212647
0.214111
0.214803
0.214799
0.214099
0.212626
0.210214
0.206575
0.201221
0.19333
0.181584
0.164154
0.1391
0.105472
0.0686482
0.0389332
0.0230283
0.021931
0.0196392
0.0205443
0.0338312
0.057954
0.0901806
0.121601
0.146162
0.163609
0.175732
0.184319
0.190519
0.194976
0.198059
0.199993
0.200924
0.200923
0.199988
0.198048
0.194953
0.19048
0.184262
0.17566
0.163519
0.146046
0.121454
0.0900692
0.0579123
0.0337965
0.0205359
0.0196362
0.0171259
0.0181457
0.028481
0.0466594
0.0725661
0.0990393
0.121306
0.137514
0.149278
0.158304
0.165286
0.170554
0.174315
0.176707
0.177868
0.177869
0.176711
0.17432
0.170551
0.165263
0.158252
0.149195
0.137397
0.121132
0.0988491
0.0724112
0.0465845
0.0284261
0.0181642
0.0171234
0.0144153
0.0159502
0.0226941
0.0355403
0.0538047
0.0729547
0.0891213
0.101953
0.1124
0.1214
0.128724
0.134424
0.138578
0.141206
0.142488
0.142494
0.141222
0.138601
0.134454
0.128733
0.121379
0.11233
0.101835
0.0889468
0.0727729
0.0536858
0.0354687
0.0226534
0.0159746
0.0144152
0.0115701
0.0134812
0.0178219
0.0255047
0.0355786
0.0462105
0.055744
0.0641146
0.0715388
0.0782216
0.0839482
0.088545
0.0919737
0.0942396
0.0953705
0.0953803
0.0942682
0.0920172
0.0885948
0.0839855
0.0782257
0.0715035
0.0640555
0.0556631
0.0461236
0.0355006
0.0254653
0.0178132
0.0135112
0.0115732
0.00869486
0.0102789
0.0132052
0.0166748
0.0218386
0.0272795
0.032312
0.036737
0.0407836
0.0444127
0.0474995
0.04997
0.0518376
0.0530922
0.0537247
0.0537287
0.0531039
0.051856
0.049992
0.0475157
0.0443854
0.0407408
0.0366901
0.0322695
0.027249
0.0218208
0.016661
0.013205
0.0103171
0.00870071
0.00513117
0.00162646
0.00748457
0.0110716
0.0146539
0.0176634
0.0202498
0.0226584
0.0247561
0.0265585
0.0280701
0.0292766
0.0301752
0.0307732
0.0310725
0.0310723
0.0307726
0.0301733
0.0292725
0.0280629
0.0265467
0.0247414
0.0226433
0.0202374
0.0176692
0.0146644
0.0110817
0.00749121
0.00163126
0.00513655
0.00356728
0.00609687
0.00869702
0.0110619
0.013427
0.0156643
0.017729
0.0195079
0.0210491
0.0223728
0.0234814
0.0243845
0.0250709
0.0255304
0.0257605
0.0257602
0.0255296
0.0250695
0.0243825
0.0234788
0.0223696
0.0210452
0.0195028
0.0177243
0.0156614
0.0134267
0.0110648
0.00870243
0.00610316
0.00357106
0.00336259
0.00571935
0.00824413
0.0105766
0.0129211
0.0151366
0.0171685
0.018908
0.0204314
0.0217537
0.0228644
0.0237529
0.0244191
0.0248649
0.025089
0.0250904
0.0248691
0.0244261
0.0237624
0.022876
0.0217671
0.0204462
0.0189242
0.0171827
0.0151464
0.0129251
0.0105745
0.00823699
0.00570918
0.00335563
0.00487412
0.00250122
0.0106763
0.0159457
0.0210331
0.0255641
0.029423
0.0324313
0.0347438
0.0364852
0.0377917
0.0387649
0.0394661
0.0399245
0.0401537
0.0401592
0.0399408
0.0394925
0.0387999
0.0378334
0.0365322
0.0347926
0.0324712
0.0294461
0.0255547
0.0210071
0.0159169
0.0106539
0.00247722
0.00486319
0.00828604
0.0129757
0.0172564
0.0210358
0.0240514
0.0271656
0.030222
0.0331347
0.0359195
0.0383616
0.0404346
0.0421213
0.0433992
0.0442586
0.0446915
0.0446946
0.0442698
0.0434234
0.0421639
0.0405002
0.0384683
0.0360363
0.0332083
0.0302443
0.0271677
0.0240549
0.021041
0.0172353
0.0128787
0.00827312
0.0110663
0.0181349
0.0232388
0.0248365
0.0286783
0.0347162
0.0414652
0.0478278
0.0533383
0.0579218
0.0617104
0.0648151
0.0672002
0.0688206
0.0696327
0.0696192
0.0687817
0.0671405
0.0647455
0.0616539
0.0578954
0.0533673
0.0478822
0.041471
0.0346369
0.0286919
0.0248498
0.0232042
0.0180647
0.0110581
0.0138078
0.022104
0.0263241
0.0295094
0.0383153
0.0507726
0.0624788
0.0721693
0.0801269
0.0867634
0.0922149
0.0966409
0.100063
0.102527
0.103782
0.103755
0.102448
0.0999294
0.0964823
0.0921408
0.0867632
0.0802111
0.0723205
0.062641
0.050722
0.0381637
0.0295181
0.0263161
0.0220514
0.0138061
0.0164363
0.025582
0.0285737
0.0359457
0.0511453
0.0693416
0.0870424
0.101849
0.113627
0.122741
0.129791
0.135195
0.13917
0.141781
0.143062
0.143049
0.141736
0.139064
0.135089
0.129749
0.122795
0.113792
0.102125
0.0874304
0.069542
0.051159
0.0359822
0.0285931
0.0255524
0.01644
0.0189075
0.0282458
0.0310233
0.0437285
0.0636388
0.0873906
0.110811
0.12945
0.143114
0.153095
0.160421
0.165769
0.169534
0.171934
0.1731
0.173102
0.171937
0.169537
0.165798
0.160503
0.153245
0.143329
0.129724
0.111164
0.0877169
0.0637769
0.043776
0.0311361
0.0282631
0.0189135
0.0211881
0.0303511
0.0342857
0.0511244
0.0751121
0.103947
0.130447
0.150532
0.164935
0.175117
0.182281
0.187276
0.190652
0.192743
0.193745
0.193755
0.192772
0.190705
0.187361
0.182407
0.175288
0.165146
0.150774
0.130694
0.10414
0.075189
0.0511372
0.0344174
0.0303789
0.021195
0.0232216
0.0320209
0.0376453
0.057452
0.0851755
0.11811
0.145656
0.166013
0.180382
0.190306
0.197069
0.201607
0.204559
0.206331
0.207167
0.20718
0.206371
0.204627
0.201706
0.1972
0.190465
0.18056
0.166197
0.145819
0.118187
0.0851427
0.0574376
0.0377626
0.0320496
0.0232274
0.0250103
0.0333794
0.040927
0.0634169
0.0950475
0.129836
0.157351
0.177304
0.191172
0.200562
0.206792
0.210836
0.213372
0.214848
0.215529
0.215543
0.214888
0.213439
0.210929
0.206908
0.200694
0.191309
0.177433
0.157449
0.129871
0.094992
0.0633923
0.041013
0.0334068
0.0250145
0.0265355
0.0344894
0.0439211
0.0687073
0.10366
0.139
0.166158
0.18545
0.198629
0.20738
0.21304
0.216602
0.21876
0.219974
0.220522
0.220534
0.220009
0.218817
0.216679
0.213132
0.207478
0.198724
0.185527
0.166202
0.138991
0.103592
0.0686791
0.0439689
0.0345146
0.0265382
0.0277791
0.0353832
0.0464737
0.0731042
0.110568
0.145992
0.172625
0.191214
0.203698
0.211825
0.216958
0.220093
0.221929
0.222927
0.223366
0.223375
0.222954
0.221972
0.220149
0.217022
0.211889
0.203752
0.191247
0.172626
0.145954
0.1105
0.0730778
0.0464889
0.0354061
0.0277806
0.0287256
0.0360646
0.0484107
0.0763969
0.115687
0.151045
0.177168
0.195138
0.207026
0.21463
0.219329
0.222123
0.223708
0.224542
0.224899
0.224905
0.224562
0.223739
0.222161
0.219368
0.214664
0.207047
0.195138
0.17714
0.150992
0.115631
0.0763926
0.0484258
0.0360856
0.0287262
0.0293632
0.0365297
0.0497389
0.0785865
0.119052
0.154323
0.180062
0.19758
0.209038
0.216269
0.220663
0.223221
0.224636
0.22536
0.225661
0.225666
0.225373
0.224656
0.223245
0.220684
0.216282
0.209036
0.197558
0.180017
0.154265
0.119006
0.0785892
0.0497523
0.0365472
0.0293632
0.0296838
0.0367748
0.0504173
0.0796859
0.120718
0.155934
0.18147
0.198752
0.209986
0.217024
0.221261
0.2237
0.225028
0.225697
0.225971
0.225974
0.225706
0.225043
0.223715
0.221272
0.217026
0.209973
0.19872
0.181419
0.155874
0.120677
0.0796903
0.0504285
0.036781
0.0296836
0.0296833
0.0367751
0.0504165
0.0796834
0.120713
0.15593
0.181467
0.198752
0.209987
0.217025
0.221263
0.223701
0.22503
0.225698
0.225972
0.225975
0.225707
0.225043
0.223715
0.221273
0.217026
0.209973
0.19872
0.181417
0.155871
0.120671
0.0796859
0.0504269
0.0367793
0.0296832
0.0293616
0.0365249
0.0497363
0.0785788
0.119036
0.154311
0.180055
0.197579
0.20904
0.216273
0.220668
0.223226
0.22464
0.225362
0.225663
0.225667
0.225374
0.224657
0.223245
0.220685
0.216282
0.209036
0.197557
0.180013
0.154254
0.118989
0.0785767
0.0497477
0.0365414
0.0293621
0.028723
0.0360563
0.0484074
0.0763851
0.11566
0.151027
0.17716
0.195138
0.207031
0.214637
0.219337
0.22213
0.223713
0.224545
0.2249
0.224905
0.224561
0.223738
0.22216
0.219368
0.214664
0.207046
0.195135
0.177133
0.150978
0.115606
0.0763755
0.0484193
0.0360752
0.0287243
0.0277756
0.0353726
0.0464781
0.0730925
0.110536
0.145973
0.172619
0.191217
0.203706
0.211836
0.216968
0.2201
0.221932
0.222927
0.223363
0.223371
0.222949
0.221968
0.220146
0.217019
0.211886
0.203749
0.191243
0.172619
0.145939
0.110474
0.0730665
0.046493
0.0353917
0.0277777
0.0265315
0.0344785
0.0439591
0.0687023
0.103626
0.138983
0.166157
0.185459
0.198643
0.207393
0.213051
0.216608
0.21876
0.219969
0.220513
0.220523
0.219998
0.218806
0.21667
0.213124
0.207471
0.198718
0.185522
0.166195
0.138978
0.10357
0.0686784
0.0440014
0.0344978
0.0265345
0.0250061
0.0333687
0.0409753
0.0634099
0.0950106
0.129825
0.157359
0.177321
0.19119
0.200578
0.206801
0.210836
0.213365
0.214834
0.215512
0.215523
0.214868
0.213421
0.210913
0.206895
0.200683
0.1913
0.177425
0.157442
0.129856
0.0949673
0.0633919
0.0410467
0.0333879
0.02501
0.0232175
0.0320113
0.0376975
0.0574418
0.0851375
0.1181
0.145676
0.16604
0.180406
0.19032
0.197071
0.201598
0.204539
0.206306
0.207138
0.207149
0.20634
0.204598
0.201682
0.19718
0.19045
0.180548
0.166187
0.145809
0.118166
0.0851141
0.0574339
0.0377912
0.0320293
0.0232222
0.0211842
0.0303435
0.0343361
0.0511164
0.0751146
0.103973
0.13049
0.150572
0.16496
0.175124
0.182268
0.187247
0.190613
0.1927
0.193702
0.193711
0.192728
0.190662
0.187325
0.18238
0.175269
0.165133
0.150764
0.130686
0.104131
0.0751794
0.0511309
0.034439
0.0303576
0.0211892
0.0189039
0.0282352
0.0310595
0.0437308
0.0636723
0.0874628
0.110879
0.129495
0.14313
0.153081
0.160377
0.165703
0.169459
0.171866
0.173037
0.17304
0.171873
0.169472
0.165742
0.160461
0.153216
0.14331
0.129715
0.111158
0.0877224
0.0637852
0.0437694
0.0311486
0.0282427
0.0189079
0.0164312
0.0255559
0.0285656
0.0359677
0.0511908
0.0694125
0.0871265
0.101884
0.113614
0.122685
0.129696
0.135065
0.139031
0.141679
0.142973
0.142964
0.141645
0.138961
0.134999
0.129681
0.122743
0.113754
0.102103
0.0874286
0.0695677
0.051206
0.0359997
0.0285732
0.0255254
0.0164329
0.0138019
0.0220777
0.0263081
0.0294958
0.0383084
0.0508061
0.0625395
0.0722118
0.0801355
0.0867398
0.0921589
0.0965265
0.0999352
0.102413
0.103675
0.103656
0.102356
0.0998469
0.0964264
0.0921129
0.0867462
0.0802014
0.0723255
0.0626688
0.0507701
0.0381943
0.0294969
0.0262907
0.0220267
0.0137991
0.0110598
0.0181081
0.0232125
0.0248216
0.0286703
0.034722
0.0415014
0.047859
0.0533406
0.057906
0.0616848
0.0647814
0.0671658
0.0687891
0.0696049
0.0695953
0.0687617
0.0671244
0.0647343
0.0616476
0.0578902
0.0533644
0.0478836
0.041512
0.0346671
0.0286773
0.0248258
0.0231765
0.0180445
0.011052
0.0082795
0.0129457
0.0172399
0.0210254
0.0240388
0.0271527
0.0302117
0.0331388
0.0359558
0.0383986
0.0404601
0.0421421
0.0434164
0.0442733
0.0447054
0.0447089
0.044285
0.0434395
0.04218
0.0405153
0.0384846
0.0360509
0.0332181
0.0302253
0.0271458
0.0240338
0.0210231
0.0172178
0.0128639
0.00826836
0.00487002
0.00249575
0.0106675
0.0159311
0.0210153
0.0255485
0.0294189
0.0324318
0.0347458
0.0364837
0.0377864
0.0387574
0.0394565
0.0399128
0.0401401
0.0401437
0.0399233
0.0394733
0.0387794
0.0378122
0.0365121
0.0347742
0.0324548
0.0294289
0.0255336
0.0209891
0.0159044
0.0106467
0.00247459
0.00486064
0.00336012
0.00571541
0.00824002
0.0105728
0.012918
0.0151344
0.0171671
0.018907
0.0204309
0.0217529
0.0228631
0.0237503
0.0244158
0.0248611
0.0250847
0.0250858
0.0248642
0.0244209
0.0237572
0.0228715
0.0217625
0.0204412
0.018918
0.0171764
0.0151403
0.0129196
0.0105699
0.00823341
0.00570665
0.00335425
0.00334799
0.00567595
0.0081441
0.0104405
0.0127261
0.0148831
0.0168687
0.0185758
0.0200658
0.0213549
0.0224371
0.0233072
0.0239618
0.0243988
0.0246166
0.0246145
0.0243925
0.0239516
0.0232934
0.0224204
0.0213365
0.0200474
0.01856
0.0168579
0.0148787
0.0127288
0.0104502
0.00815727
0.00569352
0.00335986
0.00487989
0.0031421
0.0120336
0.0184666
0.0245497
0.0299628
0.0346703
0.0385952
0.0417783
0.0443211
0.0463194
0.0478496
0.0489604
0.0496828
0.0500359
0.0500297
0.0496652
0.0489343
0.0478203
0.046295
0.0443119
0.0417935
0.0386509
0.0347715
0.0300662
0.0246283
0.0184974
0.0120355
0.00320967
0.00489876
0.00822032
0.0143777
0.0195758
0.0251082
0.0299978
0.0346242
0.0388617
0.0425197
0.0453193
0.0474291
0.0490017
0.0501522
0.0509637
0.0514861
0.0517455
0.051753
0.0515079
0.0509992
0.0502013
0.0490673
0.0475302
0.0454559
0.0426837
0.0389992
0.0346688
0.029934
0.0249972
0.0195379
0.0144415
0.00823466
0.0109666
0.0207151
0.0275668
0.0307432
0.0336601
0.0368448
0.0399957
0.043234
0.0465363
0.0498589
0.0530913
0.0559496
0.0582587
0.0598744
0.0606902
0.0606506
0.0597555
0.0580619
0.0556838
0.0527919
0.0497422
0.0465727
0.043295
0.0400314
0.0368339
0.0335089
0.0306038
0.0275909
0.0208227
0.0109816
0.0136288
0.0259495
0.0328008
0.0353083
0.0376624
0.0437958
0.0511683
0.0583582
0.0648758
0.0707871
0.0760679
0.0804059
0.0836838
0.0858771
0.0869945
0.087012
0.0859258
0.0837532
0.0804386
0.0758301
0.0704285
0.064741
0.0583551
0.0511902
0.0438794
0.0378187
0.0352851
0.0329182
0.0260683
0.0136357
0.0161824
0.0306377
0.0367346
0.0385525
0.0435738
0.055295
0.0676912
0.0788679
0.0883909
0.0964368
0.103248
0.108819
0.112999
0.115903
0.117424
0.11746
0.116018
0.113249
0.109071
0.103371
0.096405
0.0883156
0.0787395
0.0675053
0.0553657
0.0438525
0.0386404
0.0369215
0.0307861
0.0161816
0.0185716
0.0346135
0.0396705
0.0413264
0.0516164
0.0679475
0.08457
0.100473
0.114501
0.125723
0.134433
0.140908
0.145516
0.148552
0.150076
0.150083
0.148575
0.14556
0.140928
0.134395
0.12557
0.11427
0.10029
0.0843152
0.0678257
0.051652
0.0414364
0.0398289
0.0347364
0.0185645
0.0207726
0.0379898
0.0415573
0.0446851
0.0606037
0.0805601
0.101506
0.121948
0.138501
0.150606
0.159512
0.165979
0.170494
0.17338
0.174793
0.174787
0.173362
0.170461
0.165915
0.159404
0.150438
0.138234
0.121614
0.101248
0.0803968
0.0604175
0.0447538
0.0416828
0.0380472
0.0207611
0.0227594
0.0408942
0.0430926
0.0489398
0.0695741
0.0923872
0.117623
0.13984
0.15671
0.168958
0.177734
0.183944
0.188188
0.190842
0.192118
0.192108
0.190809
0.188131
0.18386
0.177623
0.168822
0.156547
0.139649
0.117415
0.0923111
0.0695059
0.0488665
0.0431744
0.0409149
0.0227471
0.024507
0.0433128
0.0444765
0.0537789
0.0770925
0.10312
0.131066
0.153413
0.170073
0.18203
0.190465
0.196315
0.200231
0.202636
0.203777
0.203766
0.202603
0.200176
0.196239
0.190374
0.181931
0.169969
0.153308
0.130983
0.10313
0.0771054
0.053578
0.0445293
0.0433113
0.0244956
0.0259947
0.0452672
0.0457015
0.0584824
0.0836449
0.112802
0.141446
0.163583
0.179752
0.191219
0.199202
0.204646
0.208224
0.210385
0.211398
0.211389
0.210359
0.208182
0.204591
0.199141
0.19116
0.179702
0.163553
0.141463
0.112889
0.0836896
0.0583462
0.0457432
0.0452516
0.0259844
0.0272057
0.0467911
0.0467512
0.0624731
0.0889619
0.120493
0.149259
0.171004
0.186622
0.197562
0.205077
0.210122
0.213383
0.215321
0.21622
0.216214
0.215304
0.213357
0.210092
0.205049
0.197544
0.186625
0.171039
0.149343
0.120628
0.0890547
0.0624895
0.0467869
0.0467666
0.0271967
0.028127
0.0479163
0.0476398
0.0653264
0.0928424
0.126057
0.154804
0.176161
0.191297
0.201775
0.208882
0.213585
0.216577
0.21833
0.219136
0.219133
0.218322
0.216567
0.213577
0.208883
0.201794
0.191342
0.176242
0.154927
0.126208
0.0929398
0.0653671
0.0476644
0.0478879
0.0281188
0.0287481
0.0486649