/*--------------------------------*- C++ -*----------------------------------*\
| =========                 |                                                 |
| \\      /  F ield         | OpenFOAM: The Open Source CFD Toolbox           |
|  \\    /   O peration     | Version:  2312                                  |
|   \\  /    A nd           | Website:  www.openfoam.com                      |
|    \\/     M anipulation  |                                                 |
\*---------------------------------------------------------------------------*/
FoamFile
{
    version     2.0;
    format      ascii;
    arch        "LSB;label=32;scalar=64";
    class       volScalarField;
    location    "850";
    object      epsilon;
}
// * * * * * * * * * * * * * * * * * * * * * * * * * * * * * * * * * * * * * //

dimensions      [0 2 -3 0 0 0 0];

internalField   nonuniform List<scalar> 
27000
(
0.00152738
0.000224945
0.0001111
7.03091e-05
5.22219e-05
4.19216e-05
3.5203e-05
3.0551e-05
2.72068e-05
2.47593e-05
2.29584e-05
2.16364e-05
2.07026e-05
2.01089e-05
1.98206e-05
1.98204e-05
2.01084e-05
2.07019e-05
2.16354e-05
2.29567e-05
2.4757e-05
2.72035e-05
3.05459e-05
3.5194e-05
4.19045e-05
5.21861e-05
7.02289e-05
0.000110909
0.000224458
0.00152437
0.000150934
3.25719e-05
1.39494e-05
9.34347e-06
7.21909e-06
5.98986e-06
5.15352e-06
4.54201e-06
4.08374e-06
3.74076e-06
3.48613e-06
3.29908e-06
3.16657e-06
3.08175e-06
3.0403e-06
3.04006e-06
3.08098e-06
3.16518e-06
3.29689e-06
3.48286e-06
3.73609e-06
4.07733e-06
4.53352e-06
5.14265e-06
5.97624e-06
7.20171e-06
9.31844e-06
1.39057e-05
3.24823e-05
0.000150699
0.000100259
1.53811e-05
5.16568e-06
2.57763e-06
1.92197e-06
1.63275e-06
1.45168e-06
1.32152e-06
1.22313e-06
1.14816e-06
1.09155e-06
1.04961e-06
1.01977e-06
1.00054e-06
9.91059e-07
9.90932e-07
1.00014e-06
1.01908e-06
1.04855e-06
1.09003e-06
1.14606e-06
1.22047e-06
1.31844e-06
1.44847e-06
1.62982e-06
1.91919e-06
2.57195e-06
5.14214e-06
1.53177e-05
0.000100121
6.67351e-05
1.0326e-05
2.8599e-06
1.39953e-06
9.9921e-07
8.55663e-07
7.81812e-07
7.33159e-07
6.97599e-07
6.70873e-07
6.50556e-07
6.35412e-07
6.24622e-07
6.17651e-07
6.14201e-07
6.14135e-07
6.17449e-07
6.24275e-07
6.3491e-07
6.49896e-07
6.70087e-07
6.96766e-07
7.32447e-07
7.8147e-07
8.55842e-07
9.99511e-07
1.39781e-06
2.84905e-06
1.02904e-05
6.66891e-05
4.92969e-05
7.29119e-06
2.06e-06
1.04602e-06
7.52268e-07
6.4247e-07
5.9245e-07
5.63861e-07
5.44941e-07
5.32537e-07
5.2329e-07
5.16343e-07
5.11397e-07
5.08202e-07
5.06619e-07
5.06584e-07
5.081e-07
5.11233e-07
5.16132e-07
5.23066e-07
5.32383e-07
5.44855e-07
5.63947e-07
5.92838e-07
6.43057e-07
7.52593e-07
1.04473e-06
2.05346e-06
7.27223e-06
4.92863e-05
3.87073e-05
5.6377e-06
1.63928e-06
8.80782e-07
6.52057e-07
5.62243e-07
5.22538e-07
5.01979e-07
4.89862e-07
4.82226e-07
4.77054e-07
4.73401e-07
4.7087e-07
4.69262e-07
4.68472e-07
4.68458e-07
4.69223e-07
4.70818e-07
4.73353e-07
4.77043e-07
4.82295e-07
4.9004e-07
5.02302e-07
5.22967e-07
5.62556e-07
6.51996e-07
8.79443e-07
1.63461e-06
5.62645e-06
3.87105e-05
3.17069e-05
4.61518e-06
1.39475e-06
7.83993e-07
5.98154e-07
5.24831e-07
4.91823e-07
4.75666e-07
4.67008e-07
4.6198e-07
4.58843e-07
4.56779e-07
4.55414e-07
4.5457e-07
4.54164e-07
4.54163e-07
4.5457e-07
4.55425e-07
4.56818e-07
4.58931e-07
4.6214e-07
4.67251e-07
4.75977e-07
4.92123e-07
5.24952e-07
5.97824e-07
7.82615e-07
1.39108e-06
4.60815e-06
3.17157e-05
2.68342e-05
3.92674e-06
1.23446e-06
7.20938e-07
5.63474e-07
5.03165e-07
4.76188e-07
4.63397e-07
4.56999e-07
4.53582e-07
4.51618e-07
4.50413e-07
4.49654e-07
4.49199e-07
4.48986e-07
4.48992e-07
4.4922e-07
4.49696e-07
4.50487e-07
4.51735e-07
4.53749e-07
4.57208e-07
4.63614e-07
4.76334e-07
5.03111e-07
5.63042e-07
7.19687e-07
1.23173e-06
3.92266e-06
2.68471e-05
2.32677e-05
3.43237e-06
1.11943e-06
6.76547e-07
5.39949e-07
4.89341e-07
4.67236e-07
4.57144e-07
4.52396e-07
4.50057e-07
4.48821e-07
4.4811e-07
4.4768e-07
4.47427e-07
4.47312e-07
4.47321e-07
4.47455e-07
4.47729e-07
4.48187e-07
4.48928e-07
4.50191e-07
4.52538e-07
4.57258e-07
4.67256e-07
4.89179e-07
5.39501e-07
6.75518e-07
1.11751e-06
3.43022e-06
2.32808e-05
2.06647e-05
3.07075e-06
1.03389e-06
6.44178e-07
5.25652e-07
4.80635e-07
4.61854e-07
4.53724e-07
4.50154e-07
4.48543e-07
4.47765e-07
4.47347e-07
4.471e-07
4.46956e-07
4.46892e-07
4.46901e-07
4.46982e-07
4.47145e-07
4.4741e-07
4.47844e-07
4.4863e-07
4.50229e-07
4.53754e-07
4.6179e-07
4.80415e-07
5.25197e-07
6.43375e-07
1.0326e-06
3.06981e-06
2.06771e-05
1.87636e-05
2.80611e-06
9.69986e-07
6.19559e-07
5.14101e-07
4.745e-07
4.58387e-07
4.51721e-07
4.48983e-07
4.47855e-07
4.47365e-07
4.47121e-07
4.4698e-07
4.46896e-07
4.46859e-07
4.46866e-07
4.46917e-07
4.47013e-07
4.47165e-07
4.47414e-07
4.479e-07
4.49005e-07
4.51694e-07
4.58279e-07
4.74272e-07
5.13711e-07
6.18965e-07
9.69145e-07
2.80592e-06
1.87754e-05
1.73935e-05
2.61501e-06
9.23144e-07
6.013e-07
5.05411e-07
4.70051e-07
4.56043e-07
4.50476e-07
4.48325e-07
4.47516e-07
4.47203e-07
4.47062e-07
4.46982e-07
4.46934e-07
4.46911e-07
4.46916e-07
4.46948e-07
4.47004e-07
4.47088e-07
4.47226e-07
4.47527e-07
4.4831e-07
4.50418e-07
4.55919e-07
4.69841e-07
5.05098e-07
6.00873e-07
9.22607e-07
2.6153e-06
1.74049e-05
1.64442e-05
2.48237e-06
8.90245e-07
5.88217e-07
4.99233e-07
4.66949e-07
4.54475e-07
4.49692e-07
4.4794e-07
4.47335e-07
4.4713e-07
4.4705e-07
4.47006e-07
4.46977e-07
4.46964e-07
4.46967e-07
4.46986e-07
4.47017e-07
4.4706e-07
4.47134e-07
4.47324e-07
4.47904e-07
4.49618e-07
4.54351e-07
4.66766e-07
4.98989e-07
5.87937e-07
8.89904e-07
2.48294e-06
1.64553e-05
1.58453e-05
2.39857e-06
8.69297e-07
5.79773e-07
4.95276e-07
4.64991e-07
4.53512e-07
4.4923e-07
4.47725e-07
4.47241e-07
4.47096e-07
4.47049e-07
4.47025e-07
4.47008e-07
4.46999e-07
4.47001e-07
4.47012e-07
4.47029e-07
4.4705e-07
4.47088e-07
4.47217e-07
4.47677e-07
4.4915e-07
4.53393e-07
4.64829e-07
4.95074e-07
5.7956e-07
8.69064e-07
2.3993e-06
1.58563e-05
1.55551e-05
2.35792e-06
8.59094e-07
5.75648e-07
4.93348e-07
4.64047e-07
4.53055e-07
4.49017e-07
4.47631e-07
4.47203e-07
4.47086e-07
4.47053e-07
4.47037e-07
4.47025e-07
4.47019e-07
4.4702e-07
4.47028e-07
4.47038e-07
4.47049e-07
4.47072e-07
4.47173e-07
4.47579e-07
4.48937e-07
4.52942e-07
4.63899e-07
4.93169e-07
5.75466e-07
8.58912e-07
2.35872e-06
1.55662e-05
1.55541e-05
2.35774e-06
8.59052e-07
5.75636e-07
4.93346e-07
4.6405e-07
4.53061e-07
4.49025e-07
4.47639e-07
4.47211e-07
4.47094e-07
4.4706e-07
4.47044e-07
4.47032e-07
4.47025e-07
4.47026e-07
4.47033e-07
4.47045e-07
4.47056e-07
4.4708e-07
4.47182e-07
4.47589e-07
4.48948e-07
4.52953e-07
4.63909e-07
4.93175e-07
5.75462e-07
8.5888e-07
2.35855e-06
1.55652e-05
1.58424e-05
2.39801e-06
8.69165e-07
5.79734e-07
4.95269e-07
4.65e-07
4.53529e-07
4.49252e-07
4.4775e-07
4.47266e-07
4.4712e-07
4.47071e-07
4.47045e-07
4.47026e-07
4.47017e-07
4.47018e-07
4.4703e-07
4.47048e-07
4.47071e-07
4.47112e-07
4.47244e-07
4.47707e-07
4.49182e-07
4.53426e-07
4.64859e-07
4.95093e-07
5.79549e-07
8.68967e-07
2.39878e-06
1.58534e-05
1.64393e-05
2.48139e-06
8.90009e-07
5.88145e-07
4.99218e-07
4.66962e-07
4.54504e-07
4.49731e-07
4.47983e-07
4.47378e-07
4.47171e-07
4.47087e-07
4.47039e-07
4.47008e-07
4.46992e-07
4.46995e-07
4.47015e-07
4.47049e-07
4.47096e-07
4.47174e-07
4.47369e-07
4.47954e-07
4.49673e-07
4.54407e-07
4.66816e-07
4.99022e-07
5.87921e-07
8.89742e-07
2.48204e-06
1.64502e-05
1.73866e-05
2.61355e-06
9.22775e-07
6.0118e-07
5.0538e-07
4.70065e-07
4.56083e-07
4.50531e-07
4.48386e-07
4.47577e-07
4.4726e-07
4.47114e-07
4.47029e-07
4.46976e-07
4.46951e-07
4.46955e-07
4.46988e-07
4.47048e-07
4.47136e-07
4.47281e-07
4.47589e-07
4.48379e-07
4.50493e-07
4.55997e-07
4.69914e-07
5.05149e-07
6.0086e-07
9.22376e-07
2.61399e-06
1.73974e-05
1.87544e-05
2.80406e-06
9.69438e-07
6.19372e-07
5.14045e-07
4.74513e-07
4.5844e-07
4.51795e-07
4.49065e-07
4.47936e-07
4.47439e-07
4.47187e-07
4.47039e-07
4.46949e-07
4.46908e-07
4.46915e-07
4.46967e-07
4.47068e-07
4.47226e-07
4.47483e-07
4.47977e-07
4.49091e-07
4.51788e-07
4.58376e-07
4.74364e-07
5.13777e-07
6.1895e-07
9.68836e-07
2.80414e-06
1.87652e-05
2.0653e-05
3.06795e-06
1.0331e-06
6.43899e-07
5.25564e-07
4.80645e-07
4.61921e-07
4.53819e-07
4.50258e-07
4.48643e-07
4.47855e-07
4.47426e-07
4.4717e-07
4.47019e-07
4.46951e-07
4.46959e-07
4.47043e-07
4.4721e-07
4.47482e-07
4.47925e-07
4.4872e-07
4.50329e-07
4.53862e-07
4.619e-07
4.80517e-07
5.25269e-07
6.43353e-07
1.0322e-06
3.06746e-06
2.06636e-05
2.32531e-05
3.42856e-06
1.11831e-06
6.76145e-07
5.39821e-07
4.8935e-07
4.67319e-07
4.5726e-07
4.52519e-07
4.50173e-07
4.48922e-07
4.48198e-07
4.47756e-07
4.47497e-07
4.47379e-07
4.47388e-07
4.47525e-07
4.47804e-07
4.48268e-07
4.49016e-07
4.50288e-07
4.52644e-07
4.5737e-07
4.67369e-07
4.89278e-07
5.39548e-07
6.75465e-07
1.117e-06
3.42718e-06
2.32634e-05
2.68161e-05
3.92159e-06
1.23288e-06
7.20375e-07
5.63299e-07
5.03174e-07
4.76287e-07
4.63529e-07
4.57132e-07
4.53702e-07
4.51721e-07
4.50501e-07
4.49731e-07
4.4927e-07
4.49056e-07
4.49064e-07
4.49296e-07
4.49778e-07
4.50575e-07
4.51828e-07
4.53847e-07
4.57311e-07
4.63719e-07
4.76434e-07
5.0319e-07
5.63052e-07
7.19561e-07
1.23102e-06
3.9188e-06
2.68254e-05
3.16861e-05
4.60813e-06
1.39251e-06
7.83222e-07
5.97924e-07
5.24832e-07
4.91925e-07
4.75795e-07
4.67127e-07
4.6208e-07
4.58925e-07
4.56848e-07
4.55476e-07
4.54631e-07
4.54228e-07
4.54233e-07
4.54647e-07
4.55508e-07
4.56904e-07
4.59019e-07
4.62226e-07
4.67335e-07
4.76055e-07
4.92187e-07
5.24979e-07
5.97766e-07
7.82331e-07
1.38998e-06
4.60313e-06
3.16911e-05
3.86795e-05
5.62736e-06
1.63601e-06
8.7972e-07
6.51746e-07
5.62193e-07
5.22603e-07
5.0205e-07
4.89911e-07
4.8226e-07
4.77076e-07
4.73419e-07
4.70892e-07
4.69291e-07
4.68511e-07
4.68507e-07
4.69283e-07
4.70885e-07
4.73423e-07
4.77108e-07
4.82347e-07
4.90077e-07
5.02321e-07
5.22956e-07
5.62471e-07
6.51783e-07
8.78859e-07
1.63273e-06
5.61918e-06
3.86792e-05
4.92569e-05
7.27532e-06
2.05492e-06
1.04445e-06
7.51797e-07
6.42327e-07
5.9236e-07
5.63733e-07
5.44802e-07
5.3242e-07
5.23176e-07
5.16247e-07
5.11322e-07
5.08148e-07
5.06585e-07
5.06568e-07
5.08098e-07
5.11242e-07
5.16143e-07
5.23064e-07
5.32346e-07
5.44777e-07
5.6383e-07
5.92678e-07
6.42795e-07
7.521e-07
1.04361e-06
2.05025e-06
7.26134e-06
4.92446e-05
6.66712e-05
1.02998e-05
2.85109e-06
1.39678e-06
9.9817e-07
8.54981e-07
7.81156e-07
7.32505e-07
6.96995e-07
6.70351e-07
6.50117e-07
6.35043e-07
6.24306e-07
6.17378e-07
6.13962e-07
6.13922e-07
6.17255e-07
6.24095e-07
6.34733e-07
6.49701e-07
6.69841e-07
6.96446e-07
7.32031e-07
7.80932e-07
8.55115e-07
9.98393e-07
1.39556e-06
2.84316e-06
1.02735e-05
6.66304e-05
0.000100143
1.53411e-05
5.14767e-06
2.57113e-06
1.9182e-06
1.62966e-06
1.44894e-06
1.31913e-06
1.22111e-06
1.14647e-06
1.09015e-06
1.04838e-06
1.01866e-06
9.99502e-07
9.9008e-07
9.89988e-07
9.99217e-07
1.01816e-06
1.04762e-06
1.08907e-06
1.14497e-06
1.21918e-06
1.31687e-06
1.44654e-06
1.62738e-06
1.91592e-06
2.56666e-06
5.12982e-06
1.52943e-05
0.000100035
0.000150758
3.25163e-05
1.39186e-05
9.32289e-06
7.20353e-06
5.97726e-06
5.1431e-06
4.53331e-06
4.07643e-06
3.73451e-06
3.48064e-06
3.29383e-06
3.16151e-06
3.07685e-06
3.03549e-06
3.03525e-06
3.07611e-06
3.1602e-06
3.29183e-06
3.47779e-06
3.73053e-06
4.07105e-06
4.52629e-06
5.13419e-06
5.96605e-06
7.18916e-06
9.30243e-06
1.38837e-05
3.2447e-05
0.000150565
0.0015255
0.000224631
0.000110958
7.02319e-05
5.21715e-05
4.18843e-05
3.51729e-05
3.05251e-05
2.71835e-05
2.47375e-05
2.29373e-05
2.16133e-05
2.06795e-05
2.0086e-05
1.97977e-05
1.97972e-05
2.00846e-05
2.06772e-05
2.16101e-05
2.29332e-05
2.47324e-05
2.71769e-05
3.05163e-05
3.51602e-05
4.18643e-05
5.21363e-05
7.01624e-05
0.000110803
0.000224251
0.00152317
0.00112282
0.000168752
8.87758e-05
5.85736e-05
4.53573e-05
3.76558e-05
3.25529e-05
2.89719e-05
2.6322e-05
2.43353e-05
2.2859e-05
2.18062e-05
2.10885e-05
2.06334e-05
2.04115e-05
2.04109e-05
2.06312e-05
2.10845e-05
2.18001e-05
2.28508e-05
2.43239e-05
2.63058e-05
2.89455e-05
3.25227e-05
3.76329e-05
4.53597e-05
5.86397e-05
8.89986e-05
0.000169447
0.00112747
0.000107105
3.08847e-05
2.03415e-05
1.43021e-05
1.14583e-05
9.61732e-06
8.26643e-06
7.27078e-06
6.5075e-06
5.92277e-06
5.48378e-06
5.1664e-06
4.94887e-06
4.81275e-06
4.74708e-06
4.74699e-06
4.81256e-06
4.94887e-06
5.16713e-06
5.48605e-06
5.92745e-06
6.51484e-06
7.28139e-06
8.28235e-06
9.64292e-06
1.14904e-05
1.43463e-05
2.04116e-05
3.10761e-05
0.000107535
8.37885e-05
2.226e-05
1.13346e-05
5.80225e-06
3.72782e-06
2.88139e-06
2.41429e-06
2.09557e-06
1.86169e-06
1.68736e-06
1.55994e-06
1.46892e-06
1.40658e-06
1.36776e-06
1.34918e-06
1.3493e-06
1.36817e-06
1.4074e-06
1.47035e-06
1.56232e-06
1.69221e-06
1.86841e-06
2.10362e-06
2.42232e-06
2.88653e-06
3.72687e-06
5.80122e-06
1.13698e-05
2.23946e-05
8.40198e-05
5.74624e-05
1.62144e-05
6.51095e-06
2.8057e-06
1.56777e-06
1.15474e-06
9.8159e-07
8.81942e-07
8.11876e-07
7.5935e-07
7.20165e-07
6.91585e-07
6.71706e-07
6.59228e-07
6.53244e-07
6.53324e-07
6.59482e-07
6.72166e-07
6.92298e-07
7.21205e-07
7.60752e-07
8.13384e-07
8.83063e-07
9.81329e-07
1.15158e-06
1.56078e-06
2.7986e-06
6.53165e-06
1.62948e-05
5.75227e-05
4.43637e-05
1.15504e-05
4.10703e-06
1.68924e-06
9.5563e-07
7.03951e-07
6.04633e-07
5.56072e-07
5.25553e-07
5.02402e-07
4.85401e-07
4.73061e-07
4.6445e-07
4.59229e-07
4.56773e-07
4.56841e-07
4.59429e-07
4.64758e-07
4.73443e-07
4.85836e-07
5.0275e-07
5.2569e-07
5.55647e-07
6.03262e-07
7.0116e-07
9.51595e-07
1.68715e-06
4.12197e-06
1.1595e-05
4.43625e-05
3.63013e-05
8.73554e-06
2.83675e-06
1.20722e-06
7.23777e-07
5.48808e-07
4.72851e-07
4.38392e-07
4.20472e-07
4.09032e-07
4.00975e-07
3.95189e-07
3.91157e-07
3.88645e-07
3.87458e-07
3.87498e-07
3.88756e-07
3.91311e-07
3.95348e-07
4.01076e-07
4.08961e-07
4.20079e-07
4.37509e-07
4.71517e-07
5.47095e-07
7.22235e-07
1.20807e-06
2.84976e-06
8.76379e-06
3.62821e-05
3.07892e-05
6.98133e-06
2.13819e-06
9.56828e-07
6.10577e-07
4.76275e-07
4.18126e-07
3.90953e-07
3.77368e-07
3.69842e-07
3.65188e-07
3.62107e-07
3.6005e-07
3.58781e-07
3.58183e-07
3.58201e-07
3.58827e-07
3.60098e-07
3.62119e-07
3.65105e-07
3.69582e-07
3.76849e-07
3.90137e-07
4.17115e-07
4.75424e-07
6.10362e-07
9.5873e-07
2.1481e-06
6.99479e-06
3.07724e-05
2.6864e-05
5.84183e-06
1.73384e-06
8.13295e-07
5.45126e-07
4.38493e-07
3.91521e-07
3.68963e-07
3.57736e-07
3.5194e-07
3.48773e-07
3.46927e-07
3.4581e-07
3.45159e-07
3.44859e-07
3.44862e-07
3.45163e-07
3.45795e-07
3.46862e-07
3.48616e-07
3.51648e-07
3.57282e-07
3.68378e-07
3.90934e-07
4.38165e-07
5.45472e-07
8.15102e-07
1.74056e-06
5.84928e-06
2.6848e-05
2.41353e-05
5.07728e-06
1.48651e-06
7.25634e-07
5.0383e-07
4.16141e-07
3.76831e-07
3.5773e-07
3.48219e-07
3.43462e-07
3.41064e-07
3.39828e-07
3.39173e-07
3.3883e-07
3.3868e-07
3.38675e-07
3.38812e-07
3.39128e-07
3.39735e-07
3.40901e-07
3.43213e-07
3.47891e-07
3.57375e-07
3.76563e-07
4.1614e-07
5.04306e-07
7.26989e-07
1.49083e-06
5.08151e-06
2.41241e-05
2.21112e-05
4.546e-06
1.32639e-06
6.68478e-07
4.74872e-07
4.01267e-07
3.67805e-07
3.5147e-07
3.43353e-07
3.39362e-07
3.37439e-07
3.3653e-07
3.36106e-07
3.35913e-07
3.35834e-07
3.35826e-07
3.35887e-07
3.36054e-07
3.3644e-07
3.37302e-07
3.39179e-07
3.43145e-07
3.51286e-07
3.6773e-07
4.01417e-07
4.75373e-07
6.69393e-07
1.32902e-06
4.54838e-06
2.21042e-05
2.06016e-05
4.16921e-06
1.21853e-06
6.2995e-07
4.56854e-07
3.91382e-07
3.61952e-07
3.4772e-07
3.40719e-07
3.37324e-07
3.35732e-07
3.35016e-07
3.34709e-07
3.34584e-07
3.34538e-07
3.34529e-07
3.34558e-07
3.34661e-07
3.34941e-07
3.3563e-07
3.37203e-07
3.40598e-07
3.47639e-07
3.61966e-07
3.91554e-07
4.57235e-07
6.3052e-07
1.22005e-06
4.17055e-06
2.05974e-05
1.94937e-05
3.90282e-06
1.14475e-06
6.0333e-07
4.44609e-07
3.84692e-07
3.58053e-07
3.45357e-07
3.39205e-07
3.36268e-07
3.34914e-07
3.3432e-07
3.34074e-07
3.33979e-07
3.33945e-07
3.33937e-07
3.33956e-07
3.34034e-07
3.34263e-07
3.34843e-07
3.36192e-07
3.39141e-07
3.45331e-07
3.58098e-07
3.84838e-07
4.44875e-07
6.03686e-07
1.14562e-06
3.90363e-06
1.94911e-05
1.87147e-05
3.72034e-06
1.09511e-06
5.85038e-07
4.36234e-07
3.80161e-07
3.55457e-07
3.43843e-07
3.38301e-07
3.35695e-07
3.34508e-07
3.33991e-07
3.33779e-07
3.33696e-07
3.33666e-07
3.3366e-07
3.33678e-07
3.33748e-07
3.3395e-07
3.3446e-07
3.35648e-07
3.38269e-07
3.43842e-07
3.55508e-07
3.80281e-07
4.36433e-07
5.8533e-07
1.09567e-06
3.72092e-06
1.8713e-05
1.82182e-05
3.60597e-06
1.06436e-06
5.73514e-07
4.30938e-07
3.77311e-07
3.53842e-07
3.42921e-07
3.37774e-07
3.35381e-07
3.34301e-07
3.33832e-07
3.33638e-07
3.3356e-07
3.33532e-07
3.33527e-07
3.33546e-07
3.33614e-07
3.33802e-07
3.34268e-07
3.35353e-07
3.37759e-07
3.42932e-07
3.53891e-07
3.7741e-07
4.31095e-07
5.73743e-07
1.06477e-06
3.60649e-06
1.82169e-05
1.79765e-05
3.55078e-06
1.0496e-06
5.67956e-07
4.28364e-07
3.75925e-07
3.53058e-07
3.42477e-07
3.37523e-07
3.35235e-07
3.34208e-07
3.33762e-07
3.33575e-07
3.335e-07
3.33472e-07
3.33468e-07
3.33488e-07
3.33556e-07
3.33738e-07
3.34183e-07
3.35216e-07
3.37517e-07
3.42493e-07
3.53106e-07
3.76014e-07
4.28503e-07
5.68159e-07
1.04998e-06
3.55132e-06
1.79753e-05
1.79767e-05
3.55078e-06
1.04959e-06
5.67942e-07
4.28353e-07
3.75914e-07
3.53047e-07
3.42466e-07
3.37512e-07
3.35224e-07
3.34197e-07
3.33751e-07
3.33565e-07
3.3349e-07
3.33462e-07
3.33458e-07
3.33478e-07
3.33547e-07
3.33729e-07
3.34174e-07
3.35207e-07
3.37507e-07
3.42483e-07
3.53096e-07
3.76003e-07
4.28491e-07
5.68146e-07
1.04997e-06
3.55133e-06
1.79753e-05
1.82188e-05
3.60599e-06
1.06432e-06
5.73475e-07
4.30905e-07
3.7728e-07
3.5381e-07
3.42888e-07
3.3774e-07
3.35347e-07
3.34268e-07
3.338e-07
3.33606e-07
3.3353e-07
3.33503e-07
3.33498e-07
3.33518e-07
3.33587e-07
3.33775e-07
3.34241e-07
3.35325e-07
3.3773e-07
3.42902e-07
3.53859e-07
3.77376e-07
4.31059e-07
5.73704e-07
1.06476e-06
3.60652e-06
1.82171e-05
1.87158e-05
3.7204e-06
1.09507e-06
5.84982e-07
4.36185e-07
3.80112e-07
3.55403e-07
3.43784e-07
3.38241e-07
3.35635e-07
3.3445e-07
3.33936e-07
3.33726e-07
3.33646e-07
3.33618e-07
3.33613e-07
3.33631e-07
3.33702e-07
3.33904e-07
3.34413e-07
3.356e-07
3.38219e-07
3.43789e-07
3.55451e-07
3.8022e-07
4.36368e-07
5.8526e-07
1.09563e-06
3.72097e-06
1.87134e-05
1.94951e-05
3.90298e-06
1.14477e-06
6.03274e-07
4.44552e-07
3.84623e-07
3.57972e-07
3.45268e-07
3.39114e-07
3.3618e-07
3.3483e-07
3.34241e-07
3.34e-07
3.33909e-07
3.33877e-07
3.33871e-07
3.33891e-07
3.33969e-07
3.34197e-07
3.34775e-07
3.36121e-07
3.39066e-07
3.4525e-07
3.58011e-07
3.84745e-07
4.44775e-07
6.03589e-07
1.14557e-06
3.90372e-06
1.94919e-05
2.06033e-05
4.16958e-06
1.21874e-06
6.2992e-07
4.56795e-07
3.9129e-07
3.61834e-07
3.4759e-07
3.40588e-07
3.37201e-07
3.35618e-07
3.34912e-07
3.34614e-07
3.34494e-07
3.34451e-07
3.34444e-07
3.34473e-07
3.34575e-07
3.34854e-07
3.3554e-07
3.37107e-07
3.40495e-07
3.47527e-07
3.61843e-07
3.91419e-07
4.57088e-07
6.30378e-07
1.22002e-06
4.17072e-06
2.05987e-05
2.21129e-05
4.54671e-06
1.32688e-06
6.68499e-07
4.74809e-07
4.01136e-07
3.67632e-07
3.51283e-07
3.43172e-07
3.39197e-07
3.37293e-07
3.36401e-07
3.35989e-07
3.35803e-07
3.35728e-07
3.35722e-07
3.35781e-07
3.35947e-07
3.3633e-07
3.37187e-07
3.39056e-07
3.4301e-07
3.51137e-07
3.67564e-07
4.01232e-07
4.75168e-07
6.69183e-07
1.32894e-06
4.54861e-06
2.21063e-05
2.41368e-05
5.07855e-06
1.48745e-06
7.25732e-07
5.03735e-07
4.15934e-07
3.7657e-07
3.57464e-07
3.47976e-07
3.43252e-07
3.40885e-07
3.39674e-07
3.39035e-07
3.38701e-07
3.38554e-07
3.3855e-07
3.38685e-07
3.38997e-07
3.39599e-07
3.40758e-07
3.43059e-07
3.47722e-07
3.57187e-07
3.76351e-07
4.15902e-07
5.04052e-07
7.26699e-07
1.49067e-06
5.08177e-06
2.41274e-05
2.68651e-05
5.844e-06
1.73548e-06
8.13484e-07
5.44953e-07
4.38155e-07
3.91135e-07
3.68599e-07
3.57426e-07
3.51688e-07
3.48566e-07
3.46752e-07
3.45654e-07
3.45011e-07
3.44712e-07
3.44713e-07
3.45009e-07
3.45634e-07
3.46694e-07
3.48439e-07
3.51459e-07
3.57077e-07
3.68148e-07
3.90674e-07
4.37871e-07
5.45153e-07
8.1474e-07
1.7404e-06
5.84959e-06
2.68523e-05
3.07861e-05
6.98575e-06
2.14112e-06
9.57046e-07
6.10208e-07
4.75739e-07
4.17578e-07
3.90486e-07
3.77002e-07
3.69561e-07
3.64965e-07
3.61916e-07
3.59875e-07
3.58612e-07
3.58011e-07
3.58021e-07
3.58636e-07
3.59896e-07
3.61907e-07
3.64884e-07
3.6935e-07
3.766e-07
3.89862e-07
4.16803e-07
4.75069e-07
6.09988e-07
9.58351e-07
2.1484e-06
6.99597e-06
3.07731e-05
3.63067e-05
8.74764e-06
2.84138e-06
1.20716e-06
7.22965e-07
5.47971e-07
4.72154e-07
4.37859e-07
4.20094e-07
4.08752e-07
4.00749e-07
3.94986e-07
3.90959e-07
3.88446e-07
3.87248e-07
3.87272e-07
3.88512e-07
3.91048e-07
3.95069e-07
4.00787e-07
4.08666e-07
4.19772e-07
4.37177e-07
4.71136e-07
5.46658e-07
7.21744e-07
1.20767e-06
2.85115e-06
8.76933e-06
3.62928e-05
4.43809e-05
1.15681e-05
4.11269e-06
1.68844e-06
9.54082e-07
7.02755e-07
6.0388e-07
5.55607e-07
5.25259e-07
5.0216e-07
4.85187e-07
4.72837e-07
4.64206e-07
4.58973e-07
4.56492e-07
4.56534e-07
4.59098e-07
4.64403e-07
4.73059e-07
4.85438e-07
5.02356e-07
5.25294e-07
5.55228e-07
6.02806e-07
7.00609e-07
9.50949e-07
1.68666e-06
4.12385e-06
1.16023e-05
4.4381e-05
5.7506e-05
1.62446e-05
6.52032e-06
2.80482e-06
1.56553e-06
1.15346e-06
9.81107e-07
8.81816e-07
8.11836e-07
7.59265e-07
7.19969e-07
6.91301e-07
6.7136e-07
6.58836e-07
6.52814e-07
6.52863e-07
6.58991e-07
6.71642e-07
6.91741e-07
7.20622e-07
7.60166e-07
8.12794e-07
8.82471e-07
9.80721e-07
1.15088e-06
1.55998e-06
2.79901e-06
6.53559e-06
1.63049e-05
5.75521e-05
8.39008e-05
2.23062e-05
1.1349e-05
5.80451e-06
3.72906e-06
2.88379e-06
2.4168e-06
2.09756e-06
1.86296e-06
1.68791e-06
1.5596e-06
1.46833e-06
1.40585e-06
1.36694e-06
1.34829e-06
1.34836e-06
1.36718e-06
1.40636e-06
1.46923e-06
1.56113e-06
1.69122e-06
1.86757e-06
2.10303e-06
2.42216e-06
2.88684e-06
3.72725e-06
5.80241e-06
1.13744e-05
2.24059e-05
8.40653e-05
0.000107273
3.09463e-05
2.0367e-05
1.4321e-05
1.14732e-05
9.62896e-06
8.27255e-06
7.27419e-06
6.50893e-06
5.92277e-06
5.48277e-06
5.16532e-06
4.9478e-06
4.81168e-06
4.74602e-06
4.74596e-06
4.81155e-06
4.9478e-06
5.1658e-06
5.48427e-06
5.92597e-06
6.51404e-06
7.28157e-06
8.28341e-06
9.64654e-06
1.14954e-05
1.43522e-05
2.04184e-05
3.1087e-05
0.0001076
0.00112455
0.000169019
8.88741e-05
5.86152e-05
4.5374e-05
3.76603e-05
3.25517e-05
2.89694e-05
2.6317e-05
2.4331e-05
2.28559e-05
2.18087e-05
2.1092e-05
2.06373e-05
2.04157e-05
2.04153e-05
2.0636e-05
2.10896e-05
2.18048e-05
2.28499e-05
2.43225e-05
2.63054e-05
2.89515e-05
3.25319e-05
3.76468e-05
4.53802e-05
5.867e-05
8.90486e-05
0.000169546
0.0011281
0.000943123
0.000139709
7.57511e-05
5.12456e-05
4.04291e-05
3.39654e-05
2.95413e-05
2.63573e-05
2.40461e-05
2.23454e-05
2.10813e-05
2.0143e-05
1.94758e-05
1.90516e-05
1.88468e-05
1.88496e-05
1.90602e-05
1.94905e-05
2.01644e-05
2.111e-05
2.23827e-05
2.40933e-05
2.64183e-05
2.96076e-05
3.40241e-05
4.04609e-05
5.12137e-05
7.55621e-05
0.000139012
0.000937647
9.20997e-05
3.32554e-05
2.20243e-05
1.6629e-05
1.40664e-05
1.25354e-05
1.13706e-05
1.03666e-05
9.49238e-06
8.75938e-06
8.17215e-06
7.72223e-06
7.3979e-06
7.18908e-06
7.08773e-06
7.08935e-06
7.19367e-06
7.40467e-06
7.72985e-06
8.17889e-06
8.7635e-06
9.49306e-06
1.03621e-05
1.13575e-05
1.25092e-05
1.40283e-05
1.65763e-05
2.19376e-05
3.29095e-05
9.15336e-05
7.27126e-05
2.21062e-05
1.34168e-05
8.52402e-06
6.08159e-06
4.79263e-06
4.0127e-06
3.46938e-06
3.06384e-06
2.75248e-06
2.51535e-06
2.34083e-06
2.21923e-06
2.14267e-06
2.10581e-06
2.10591e-06
2.14285e-06
2.21908e-06
2.33974e-06
2.51261e-06
2.74649e-06
3.05477e-06
3.45726e-06
4.00178e-06
4.78809e-06
6.08524e-06
8.52521e-06
1.3363e-05
2.19348e-05
7.23968e-05
5.03443e-05
1.77373e-05
9.25666e-06
4.94951e-06
2.85515e-06
1.90673e-06
1.4751e-06
1.24402e-06
1.10041e-06
9.97166e-07
9.20578e-07
8.65012e-07
8.26604e-07
8.02452e-07
7.90799e-07
7.90726e-07
8.02204e-07
8.26103e-07
8.64152e-07
9.19249e-07
9.95364e-07
1.09833e-06
1.2417e-06
1.47578e-06
1.91661e-06
2.8758e-06
4.96141e-06
9.21961e-06
1.76209e-05
5.02393e-05
3.9007e-05
1.3707e-05
6.53743e-06
3.04188e-06
1.53452e-06
9.5553e-07
7.23988e-07
6.19752e-07
5.62529e-07
5.24659e-07
4.97593e-07
4.78183e-07
4.64709e-07
4.55614e-07
4.51101e-07
4.51005e-07
4.55333e-07
4.64312e-07
4.7775e-07
4.97103e-07
5.24172e-07
5.62279e-07
6.2021e-07
7.26213e-07
9.63449e-07
1.54772e-06
3.04918e-06
6.51088e-06
1.36407e-05
3.89921e-05
3.2091e-05
1.1247e-05
4.66362e-06
1.95934e-06
9.78185e-07
6.26649e-07
4.88464e-07
4.24704e-07
3.9043e-07
3.69794e-07
3.56056e-07
3.46552e-07
3.40104e-07
3.36105e-07
3.34175e-07
3.34091e-07
3.35885e-07
3.39883e-07
3.46344e-07
3.55927e-07
3.69864e-07
3.90909e-07
4.25859e-07
4.90243e-07
6.29798e-07
9.83486e-07
1.95957e-06
4.64276e-06
1.12104e-05
3.21093e-05
2.74666e-05
9.45483e-06
3.4475e-06
1.37358e-06
7.18812e-07
4.89283e-07
3.91945e-07
3.47021e-07
3.24213e-07
3.11208e-07
3.03088e-07
2.97736e-07
2.94217e-07
2.92076e-07
2.91045e-07
2.90996e-07
2.91948e-07
2.94068e-07
2.97628e-07
3.03112e-07
3.11483e-07
3.24886e-07
3.48181e-07
3.93401e-07
4.9072e-07
7.20069e-07
1.37267e-06
3.43455e-06
9.43766e-06
2.74891e-05
2.42096e-05
8.08248e-06
2.6914e-06
1.06281e-06
5.85283e-07
4.16896e-07
3.45171e-07
3.12223e-07
2.95406e-07
2.8604e-07
2.80454e-07
2.76957e-07
2.7475e-07
2.73439e-07
2.72817e-07
2.72794e-07
2.73385e-07
2.74702e-07
2.7697e-07
2.80598e-07
2.86392e-07
2.96021e-07
3.1309e-07
3.46159e-07
4.1774e-07
5.85628e-07
1.06199e-06
2.68356e-06
8.07379e-06
2.42298e-05
2.17662e-05
7.01519e-06
2.20588e-06
8.80181e-07
5.09452e-07
3.74772e-07
3.19776e-07
2.94231e-07
2.81161e-07
2.7401e-07
2.69886e-07
2.67413e-07
2.65914e-07
2.65049e-07
2.64648e-07
2.64643e-07
2.65041e-07
2.65928e-07
2.67487e-07
2.70061e-07
2.74324e-07
2.81621e-07
2.94788e-07
3.20307e-07
3.75137e-07
5.09523e-07
8.79768e-07
2.20157e-06
7.01196e-06
2.17796e-05
1.9965e-05
6.20524e-06
1.88414e-06
7.6663e-07
4.60122e-07
3.49223e-07
3.04806e-07
2.84073e-07
2.73532e-07
2.67873e-07
2.6471e-07
2.62885e-07
2.6182e-07
2.61225e-07
2.60956e-07
2.60959e-07
2.61238e-07
2.61859e-07
2.6297e-07
2.64862e-07
2.68104e-07
2.73826e-07
2.84379e-07
3.05034e-07
3.49283e-07
4.60094e-07
7.66615e-07
1.88244e-06
6.20562e-06
1.99727e-05
1.86384e-05
5.60533e-06
1.66674e-06
6.93779e-07
4.28061e-07
3.33753e-07
2.95751e-07
2.78114e-07
2.69266e-07
2.64624e-07
2.62111e-07
2.60716e-07
2.59933e-07
2.59509e-07
2.59323e-07
2.59328e-07
2.59528e-07
2.59974e-07
2.60789e-07
2.62222e-07
2.64773e-07
2.69435e-07
2.78265e-07
2.95838e-07
3.33756e-07
4.28115e-07
6.94067e-07
1.66686e-06
5.60781e-06
1.86421e-05
1.76755e-05
5.1736e-06
1.51983e-06
6.4608e-07
4.07259e-07
3.23986e-07
2.9019e-07
2.74568e-07
2.66837e-07
2.62871e-07
2.60791e-07
2.59679e-07
2.59078e-07
2.58762e-07
2.58627e-07
2.58633e-07
2.5878e-07
2.59111e-07
2.59731e-07
2.60864e-07
2.62959e-07
2.66927e-07
2.74641e-07
2.90231e-07
3.24015e-07
4.07404e-07
6.4655e-07
1.52104e-06
5.17705e-06
1.76766e-05
1.7004e-05
4.87742e-06
1.42431e-06
6.1561e-07
3.93942e-07
3.17821e-07
2.86778e-07
2.72467e-07
2.65457e-07
2.61926e-07
2.60121e-07
2.59186e-07
2.58698e-07
2.5845e-07
2.58346e-07
2.5835e-07
2.58464e-07
2.58723e-07
2.59221e-07
2.60165e-07
2.61975e-07
2.65505e-07
2.72507e-07
2.86814e-07
3.17886e-07
3.94135e-07
6.16071e-07
1.42561e-06
4.88106e-06
1.70036e-05
1.65782e-05
4.69274e-06
1.3663e-06
5.97403e-07
3.85973e-07
3.14156e-07
2.84796e-07
2.71284e-07
2.64709e-07
2.61436e-07
2.59792e-07
2.5896e-07
2.58536e-07
2.58325e-07
2.58238e-07
2.58241e-07
2.58335e-07
2.58553e-07
2.58983e-07
2.59819e-07
2.61464e-07
2.64736e-07
2.71311e-07
2.84837e-07
3.14246e-07
3.86193e-07
5.97888e-07
1.36763e-06
4.69617e-06
1.6577e-05
1.63714e-05
4.60467e-06
1.33894e-06
5.88826e-07
3.82221e-07
3.12434e-07
2.83878e-07
2.70748e-07
2.6438e-07
2.61228e-07
2.59658e-07
2.58873e-07
2.58477e-07
2.58282e-07
2.58202e-07
2.58205e-07
2.58291e-07
2.58491e-07
2.5889e-07
2.59677e-07
2.61246e-07
2.64398e-07
2.70771e-07
2.83921e-07
3.12533e-07
3.82446e-07
5.89295e-07
1.34013e-06
4.60726e-06
1.63699e-05
1.63707e-05
4.60431e-06
1.33885e-06
5.88799e-07
3.82208e-07
3.12426e-07
2.83873e-07
2.70748e-07
2.64381e-07
2.6123e-07
2.59661e-07
2.58874e-07
2.58478e-07
2.58283e-07
2.58202e-07
2.58205e-07
2.58292e-07
2.58492e-07
2.58892e-07
2.59679e-07
2.61249e-07
2.64399e-07
2.7077e-07
2.83914e-07
3.12518e-07
3.82421e-07
5.89244e-07
1.33997e-06
4.60672e-06
1.63694e-05
1.65758e-05
4.69133e-06
1.36599e-06
5.97315e-07
3.85932e-07
3.14128e-07
2.84782e-07
2.71282e-07
2.64714e-07
2.61443e-07
2.59799e-07
2.58965e-07
2.58538e-07
2.58325e-07
2.58237e-07
2.58241e-07
2.58337e-07
2.58557e-07
2.58989e-07
2.59827e-07
2.61471e-07
2.64739e-07
2.71306e-07
2.84815e-07
3.14201e-07
3.86117e-07
5.97731e-07
1.36714e-06
4.69446e-06
1.65755e-05
1.69999e-05
4.87495e-06
1.42375e-06
6.15452e-07
3.93867e-07
3.1777e-07
2.86755e-07
2.72464e-07
2.65465e-07
2.61937e-07
2.6013e-07
2.59191e-07
2.58698e-07
2.58446e-07
2.5834e-07
2.58345e-07
2.58462e-07
2.58725e-07
2.59229e-07
2.60176e-07
2.61986e-07
2.65511e-07
2.72499e-07
2.86781e-07
3.17812e-07
3.94009e-07
6.15805e-07
1.42477e-06
4.87816e-06
1.70007e-05
1.76698e-05
5.1699e-06
1.51885e-06
6.45824e-07
4.07141e-07
3.23908e-07
2.90156e-07
2.74565e-07
2.66848e-07
2.62884e-07
2.60798e-07
2.59678e-07
2.59069e-07
2.58748e-07
2.58611e-07
2.58618e-07
2.58769e-07
2.59106e-07
2.59734e-07
2.60872e-07
2.62971e-07
2.66934e-07
2.74632e-07
2.90188e-07
3.23916e-07
4.07226e-07
6.46132e-07
1.51959e-06
5.17272e-06
1.76721e-05
1.86313e-05
5.60015e-06
1.66457e-06
6.93357e-07
4.27883e-07
3.33645e-07
2.95712e-07
2.78115e-07
2.69281e-07
2.64635e-07
2.6211e-07
2.60701e-07
2.59906e-07
2.59474e-07
2.59285e-07
2.59292e-07
2.59498e-07
2.59952e-07
2.60777e-07
2.6222e-07
2.64777e-07
2.69438e-07
2.78253e-07
2.95788e-07
3.33635e-07
4.27885e-07
6.93469e-07
1.66425e-06
5.60181e-06
1.86357e-05
1.99566e-05
6.19839e-06
1.88102e-06
7.66013e-07
4.59873e-07
3.49098e-07
3.04775e-07
2.84086e-07
2.7355e-07
2.67876e-07
2.6469e-07
2.62843e-07
2.61762e-07
2.61156e-07
2.60884e-07
2.60889e-07
2.61176e-07
2.61807e-07
2.62931e-07
2.64836e-07
2.68088e-07
2.73814e-07
2.84356e-07
3.04973e-07
3.49141e-07
4.59807e-07
7.65838e-07
1.87907e-06
6.1979e-06
1.99639e-05
2.17566e-05
7.00633e-06
2.20162e-06
8.79297e-07
5.0916e-07
3.74692e-07
3.19779e-07
2.94261e-07
2.81175e-07
2.73989e-07
2.69829e-07
2.67326e-07
2.65806e-07
2.64928e-07
2.64524e-07
2.64522e-07
2.64929e-07
2.65829e-07