/*--------------------------------*- C++ -*----------------------------------*\
| =========                 |                                                 |
| \\      /  F ield         | OpenFOAM: The Open Source CFD Toolbox           |
|  \\    /   O peration     | Version:  2312                                  |
|   \\  /    A nd           | Website:  www.openfoam.com                      |
|    \\/     M anipulation  |                                                 |
\*---------------------------------------------------------------------------*/
FoamFile
{
    version     2.0;
    format      ascii;
    arch        "LSB;label=32;scalar=64";
    class       volScalarField;
    location    "850";
    object      k;
}
// * * * * * * * * * * * * * * * * * * * * * * * * * * * * * * * * * * * * * //

dimensions      [0 2 -2 0 0 0 0];

internalField   nonuniform List<scalar> 
27000
(
0.000258925
0.000129462
0.000107539
9.58198e-05
9.03561e-05
8.69559e-05
8.43649e-05
8.20964e-05
8.02077e-05
7.8676e-05
7.74463e-05
7.64541e-05
7.56952e-05
7.51907e-05
7.49396e-05
7.49392e-05
7.51896e-05
7.56936e-05
7.6452e-05
7.74428e-05
7.86716e-05
8.02019e-05
8.2088e-05
8.43517e-05
8.69334e-05
9.03161e-05
9.57486e-05
0.000107417
0.000129277
0.000258588
9.81978e-05
2.15169e-05
2.82719e-05
3.06958e-05
3.24776e-05
3.36534e-05
3.4401e-05
3.48445e-05
3.50834e-05
3.52225e-05
3.53144e-05
3.53772e-05
3.54182e-05
3.54424e-05
3.54528e-05
3.54509e-05
3.54366e-05
3.54084e-05
3.5363e-05
3.52954e-05
3.51984e-05
3.50537e-05
3.48091e-05
3.4361e-05
3.36108e-05
3.24325e-05
3.06481e-05
2.82171e-05
2.14698e-05
9.80967e-05
0.000101383
3.49188e-05
2.89072e-05
2.73682e-05
2.80432e-05
2.89332e-05
2.96909e-05
3.032e-05
3.08075e-05
3.11805e-05
3.14673e-05
3.16848e-05
3.18417e-05
3.19431e-05
3.19922e-05
3.19906e-05
3.19383e-05
3.18336e-05
3.16738e-05
3.14539e-05
3.11658e-05
3.07926e-05
3.03066e-05
2.96817e-05
2.89311e-05
2.80459e-05
2.73668e-05
2.88659e-05
3.48132e-05
0.000101291
9.49533e-05
3.52738e-05
2.88096e-05
2.86086e-05
2.94514e-05
3.02453e-05
3.08719e-05
3.13629e-05
3.17449e-05
3.20374e-05
3.22604e-05
3.24282e-05
3.25488e-05
3.26269e-05
3.26649e-05
3.26639e-05
3.2624e-05
3.25442e-05
3.24226e-05
3.22551e-05
3.20338e-05
3.17451e-05
3.1369e-05
3.08862e-05
3.02682e-05
2.9479e-05
2.86291e-05
2.87953e-05
3.51997e-05
9.49102e-05
9.04309e-05
3.42491e-05
2.90755e-05
2.97624e-05
3.07569e-05
3.15015e-05
3.2034e-05
3.24199e-05
3.27035e-05
3.29116e-05
3.3065e-05
3.31772e-05
3.32564e-05
3.33071e-05
3.33318e-05
3.33314e-05
3.33061e-05
3.32551e-05
3.31766e-05
3.30664e-05
3.29165e-05
3.27136e-05
3.24369e-05
3.20582e-05
3.15308e-05
3.07853e-05
2.97791e-05
2.90645e-05
3.41979e-05
9.04181e-05
8.6745e-05
3.39609e-05
2.94916e-05
3.05421e-05
3.16012e-05
3.23256e-05
3.28071e-05
3.31289e-05
3.33456e-05
3.34922e-05
3.35919e-05
3.36597e-05
3.37051e-05
3.37332e-05
3.37467e-05
3.37468e-05
3.37337e-05
3.37065e-05
3.36629e-05
3.35978e-05
3.35021e-05
3.33604e-05
3.3149e-05
3.28314e-05
3.23507e-05
3.16212e-05
3.0549e-05
2.94779e-05
3.39231e-05
8.67498e-05
8.35898e-05
3.40035e-05
3.0137e-05
3.11787e-05
3.21824e-05
3.28601e-05
3.32967e-05
3.35708e-05
3.37392e-05
3.38402e-05
3.38995e-05
3.3934e-05
3.39536e-05
3.39645e-05
3.39695e-05
3.397e-05
3.39661e-05
3.39567e-05
3.39392e-05
3.39076e-05
3.38516e-05
3.37543e-05
3.35889e-05
3.33158e-05
3.28767e-05
3.21914e-05
3.11744e-05
3.01146e-05
3.39714e-05
8.3605e-05
8.08543e-05
3.41482e-05
3.07853e-05
3.17263e-05
3.26219e-05
3.32242e-05
3.36055e-05
3.38341e-05
3.39625e-05
3.40285e-05
3.40583e-05
3.40689e-05
3.40708e-05
3.40697e-05
3.40689e-05
3.40695e-05
3.40718e-05
3.40746e-05
3.40748e-05
3.40665e-05
3.40391e-05
3.39751e-05
3.38475e-05
3.36176e-05
3.32317e-05
3.26212e-05
3.17142e-05
3.0761e-05
3.41229e-05
8.08798e-05
7.83458e-05
3.42921e-05
3.13241e-05
3.21688e-05
3.29582e-05
3.34803e-05
3.38019e-05
3.39851e-05
3.40782e-05
3.41169e-05
3.41256e-05
3.41206e-05
3.41112e-05
3.41031e-05
3.40988e-05
3.40995e-05
3.41052e-05
3.4115e-05
3.41259e-05
3.41326e-05
3.41251e-05
3.40871e-05
3.39932e-05
3.38073e-05
3.34806e-05
3.29511e-05
3.21532e-05
3.1301e-05
3.42727e-05
7.83744e-05
7.6214e-05
3.44146e-05
3.17531e-05
3.25148e-05
3.32111e-05
3.36616e-05
3.39273e-05
3.40686e-05
3.41313e-05
3.41487e-05
3.41432e-05
3.41287e-05
3.41135e-05
3.4102e-05
3.40962e-05
3.40968e-05
3.41039e-05
3.41167e-05
3.4133e-05
3.41483e-05
3.41542e-05
3.41363e-05
3.40719e-05
3.39274e-05
3.3657e-05
3.32007e-05
3.24983e-05
3.17323e-05
3.43998e-05
7.62434e-05
7.4461e-05
3.45136e-05
3.20876e-05
3.27833e-05
3.34033e-05
3.37911e-05
3.4008e-05
3.41133e-05
3.41512e-05
3.41528e-05
3.41381e-05
3.41188e-05
3.41014e-05
3.4089e-05
3.40829e-05
3.40834e-05
3.40905e-05
3.41037e-05
3.41217e-05
3.41412e-05
3.41556e-05
3.41529e-05
3.41129e-05
3.40045e-05
3.37836e-05
3.33914e-05
3.27673e-05
3.20692e-05
3.45022e-05
7.44909e-05
7.30745e-05
3.45894e-05
3.23396e-05
3.29855e-05
3.3546e-05
3.38833e-05
3.40605e-05
3.41368e-05
3.41556e-05
3.41461e-05
3.41258e-05
3.41046e-05
3.40871e-05
3.40752e-05
3.40694e-05
3.40698e-05
3.40762e-05
3.40886e-05
3.41062e-05
3.41272e-05
3.41467e-05
3.41548e-05
3.41338e-05
3.40547e-05
3.38743e-05
3.35337e-05
3.29704e-05
3.23232e-05
3.45804e-05
7.3105e-05
7.20441e-05
3.46436e-05
3.25194e-05
3.31298e-05
3.36468e-05
3.39466e-05
3.40942e-05
3.41491e-05
3.41543e-05
3.41374e-05
3.41141e-05
3.40925e-05
3.40759e-05
3.4065e-05
3.40598e-05
3.406e-05
3.40655e-05
3.40766e-05
3.4093e-05
3.41141e-05
3.41363e-05
3.41516e-05
3.41444e-05
3.40871e-05
3.3937e-05
3.36346e-05
3.31155e-05
3.25045e-05
3.46362e-05
7.20752e-05
7.13612e-05
3.4678e-05
3.26347e-05
3.32223e-05
3.37111e-05
3.39863e-05
3.41144e-05
3.41554e-05
3.4152e-05
3.41306e-05
3.41059e-05
3.40845e-05
3.40689e-05
3.40589e-05
3.40543e-05
3.40544e-05
3.40592e-05
3.4069e-05
3.40843e-05
3.41049e-05
3.41285e-05
3.41482e-05
3.41498e-05
3.41067e-05
3.39765e-05
3.36992e-05
3.32089e-05
3.2621e-05
3.46718e-05
7.1393e-05
7.10198e-05
3.46943e-05
3.26908e-05
3.32675e-05
3.37424e-05
3.40056e-05
3.41241e-05
3.41583e-05
3.41507e-05
3.41273e-05
3.4102e-05
3.4081e-05
3.40658e-05
3.40565e-05
3.40521e-05
3.40521e-05
3.40565e-05
3.40657e-05
3.40804e-05
3.41006e-05
3.41247e-05
3.41465e-05
3.41523e-05
3.41162e-05
3.39958e-05
3.37309e-05
3.32546e-05
3.26778e-05
3.46886e-05
7.1052e-05
7.1017e-05
3.46933e-05
3.26906e-05
3.32675e-05
3.37425e-05
3.40059e-05
3.41245e-05
3.41588e-05
3.41513e-05
3.41279e-05
3.41026e-05
3.40815e-05
3.40664e-05
3.4057e-05
3.40526e-05
3.40526e-05
3.4057e-05
3.40663e-05
3.40809e-05
3.41012e-05
3.41253e-05
3.41472e-05
3.4153e-05
3.41168e-05
3.39964e-05
3.37313e-05
3.3255e-05
3.26778e-05
3.46878e-05
7.10491e-05
7.13526e-05
3.46749e-05
3.26339e-05
3.32223e-05
3.37115e-05
3.39872e-05
3.41156e-05
3.41569e-05
3.41536e-05
3.41324e-05
3.41077e-05
3.40863e-05
3.40705e-05
3.40605e-05
3.40558e-05
3.40559e-05
3.40607e-05
3.40706e-05
3.4086e-05
3.41067e-05
3.41303e-05
3.41501e-05
3.41517e-05
3.41085e-05
3.39782e-05
3.37006e-05
3.32099e-05
3.26211e-05
3.46692e-05
7.13843e-05
7.20301e-05
3.46383e-05
3.2518e-05
3.31297e-05
3.36476e-05
3.39482e-05
3.40963e-05
3.41517e-05
3.41571e-05
3.41403e-05
3.4117e-05
3.40953e-05
3.40785e-05
3.40675e-05
3.40622e-05
3.40624e-05
3.4068e-05
3.40791e-05
3.40957e-05
3.41169e-05
3.41393e-05
3.41547e-05
3.41476e-05
3.40901e-05
3.39398e-05
3.3637e-05
3.31172e-05
3.25048e-05
3.46319e-05
7.20607e-05
7.30555e-05
3.45818e-05
3.23375e-05
3.29854e-05
3.35471e-05
3.38855e-05
3.40636e-05
3.41405e-05
3.41597e-05
3.41502e-05
3.41298e-05
3.41084e-05
3.40907e-05
3.40786e-05
3.40726e-05
3.40729e-05
3.40794e-05
3.40919e-05
3.41098e-05
3.4131e-05
3.41507e-05
3.41589e-05
3.41381e-05
3.40589e-05
3.38782e-05
3.35371e-05
3.29728e-05
3.23237e-05
3.45742e-05
7.30847e-05
7.44374e-05
3.45034e-05
3.20846e-05
3.27831e-05
3.34049e-05
3.37942e-05
3.40123e-05
3.41182e-05
3.41565e-05
3.4158e-05
3.4143e-05
3.41234e-05
3.41056e-05
3.40929e-05
3.40866e-05
3.4087e-05
3.40942e-05
3.41077e-05
3.41259e-05
3.41457e-05
3.41604e-05
3.4158e-05
3.41181e-05
3.40098e-05
3.37886e-05
3.33958e-05
3.27705e-05
3.20698e-05
3.44941e-05
7.44648e-05
7.61862e-05
3.44013e-05
3.17489e-05
3.25144e-05
3.32134e-05
3.36658e-05
3.39329e-05
3.40748e-05
3.41378e-05
3.41549e-05
3.41489e-05
3.41339e-05
3.41182e-05
3.41063e-05
3.41002e-05
3.41008e-05
3.4108e-05
3.4121e-05
3.41376e-05
3.41533e-05
3.41596e-05
3.4142e-05
3.40778e-05
3.39335e-05
3.36628e-05
3.32059e-05
3.25021e-05
3.1733e-05
3.43896e-05
7.62114e-05
7.8314e-05
3.42753e-05
3.13185e-05
3.21684e-05
3.29613e-05
3.34859e-05
3.3809e-05
3.39928e-05
3.40858e-05
3.41238e-05
3.41318e-05
3.4126e-05
3.41161e-05
3.41075e-05
3.4103e-05
3.41036e-05
3.41095e-05
3.41195e-05
3.41308e-05
3.41379e-05
3.41309e-05
3.40932e-05
3.39996e-05
3.38138e-05
3.34869e-05
3.29568e-05
3.21573e-05
3.13014e-05
3.42603e-05
7.83365e-05
8.0819e-05
3.41271e-05
3.07781e-05
3.17262e-05
3.26265e-05
3.32316e-05
3.36143e-05
3.38431e-05
3.39708e-05
3.40359e-05
3.40647e-05
3.40743e-05
3.40754e-05
3.4074e-05
3.40729e-05
3.40736e-05
3.40761e-05
3.40792e-05
3.40798e-05
3.40719e-05
3.40449e-05
3.39812e-05
3.3854e-05
3.36242e-05
3.32381e-05
3.26269e-05
3.17181e-05
3.07606e-05
3.41078e-05
8.08373e-05
8.35541e-05
3.39774e-05
3.01284e-05
3.11798e-05
3.2189e-05
3.28694e-05
3.33068e-05
3.35805e-05
3.37477e-05
3.38473e-05
3.39054e-05
3.39388e-05
3.39578e-05
3.39683e-05
3.39732e-05
3.39739e-05
3.39703e-05
3.39613e-05
3.39441e-05
3.39129e-05
3.38573e-05
3.37603e-05
3.35952e-05
3.3322e-05
3.28826e-05
3.21964e-05
3.11773e-05
3.01123e-05
3.39529e-05
8.35629e-05
8.67047e-05
3.3929e-05
2.94824e-05
3.05448e-05
3.16097e-05
3.23364e-05
3.28178e-05
3.31382e-05
3.33531e-05
3.34981e-05
3.35964e-05
3.36634e-05
3.37083e-05
3.37363e-05
3.37499e-05
3.37503e-05
3.37376e-05
3.37109e-05
3.36676e-05
3.36029e-05
3.35075e-05
3.3366e-05
3.31546e-05
3.2837e-05
3.23559e-05
3.16252e-05
3.05501e-05
2.9472e-05
3.39e-05
8.67043e-05
9.03831e-05
3.42074e-05
2.9063e-05
2.97657e-05
3.07662e-05
3.15119e-05
3.20431e-05
3.24268e-05
3.27083e-05
3.29148e-05
3.30672e-05
3.31789e-05
3.3258e-05
3.3309e-05
3.33341e-05
3.33342e-05
3.33093e-05
3.32589e-05
3.31808e-05
3.30709e-05
3.29211e-05
3.27183e-05
3.24415e-05
3.20626e-05
3.15347e-05
3.07878e-05
2.97781e-05
2.90542e-05
3.41681e-05
9.03685e-05
9.4894e-05
3.52189e-05
2.879e-05
2.86095e-05
2.94575e-05
3.02509e-05
3.08753e-05
3.13639e-05
3.17443e-05
3.20359e-05
3.22586e-05
3.24266e-05
3.25478e-05
3.26266e-05
3.26652e-05
3.26649e-05
3.26256e-05
3.25464e-05
3.24252e-05
3.22578e-05
3.20366e-05
3.17477e-05
3.13713e-05
3.08881e-05
3.02694e-05
2.94789e-05
2.86251e-05
2.87785e-05
3.51625e-05
9.4856e-05
0.000101306
3.48538e-05
2.88692e-05
2.73546e-05
2.80347e-05
2.89245e-05
2.96806e-05
3.03091e-05
3.07967e-05
3.11704e-05
3.14581e-05
3.16768e-05
3.18349e-05
3.19374e-05
3.19874e-05
3.19866e-05
3.1935e-05
3.18309e-05
3.16712e-05
3.14513e-05
3.11629e-05
3.07891e-05
3.03025e-05
2.96767e-05
2.89246e-05
2.80375e-05
2.73538e-05
2.88377e-05
3.47761e-05
0.000101234
9.8123e-05
2.14869e-05
2.82305e-05
3.06558e-05
3.24378e-05
3.36145e-05
3.43633e-05
3.48091e-05
3.50506e-05
3.51923e-05
3.52865e-05
3.53508e-05
3.53928e-05
3.54178e-05
3.54289e-05
3.54275e-05
3.54135e-05
3.53855e-05
3.53403e-05
3.52724e-05
3.51743e-05
3.50283e-05
3.47823e-05
3.43329e-05
3.35817e-05
3.24023e-05
3.06177e-05
2.81859e-05
2.14504e-05
9.80392e-05
0.000258717
0.000129344
0.000107449
9.57512e-05
9.02993e-05
8.69056e-05
8.43181e-05
8.20512e-05
8.0163e-05
7.86311e-05
7.73999e-05
7.64011e-05
7.56403e-05
7.5135e-05
7.48834e-05
7.48822e-05
7.51317e-05
7.5635e-05
7.6394e-05
7.73913e-05
7.86208e-05
8.01508e-05
8.20363e-05
8.42989e-05
8.68792e-05
9.02601e-05
9.56896e-05
0.000107351
0.0001292
0.000258456
0.000210911
0.000106894
9.26063e-05
8.48404e-05
8.22571e-05
8.09561e-05
8.00803e-05
7.92473e-05
7.84642e-05
7.77811e-05
7.72293e-05
7.68641e-05
7.66443e-05
7.65041e-05
7.64336e-05
7.64317e-05
7.64983e-05
7.6634e-05
7.68486e-05
7.721e-05
7.77554e-05
7.84304e-05
7.91965e-05
8.00276e-05
8.09199e-05
8.22566e-05
8.49011e-05
9.27587e-05
0.000107185
0.000211491
7.81241e-05
2.36124e-05
4.11303e-05
4.19404e-05
4.31882e-05
4.34451e-05
4.31427e-05
4.28016e-05
4.23244e-05
4.18208e-05
4.13694e-05
4.10094e-05
4.07487e-05
4.05809e-05
4.04988e-05
4.04987e-05
4.05806e-05
4.07488e-05
4.10109e-05
4.13736e-05
4.18283e-05
4.23353e-05
4.28181e-05
4.31715e-05
4.35173e-05
4.32737e-05
4.2034e-05
4.12236e-05
2.37356e-05
7.83348e-05
8.99518e-05
5.03898e-05
4.0789e-05
3.28065e-05
3.00935e-05
2.95705e-05
2.94575e-05
2.92618e-05
2.90568e-05
2.88636e-05
2.86936e-05
2.85589e-05
2.8465e-05
2.84083e-05
2.83832e-05
2.83865e-05
2.84184e-05
2.84828e-05
2.8585e-05
2.87268e-05
2.88982e-05
2.90933e-05
2.92967e-05
2.94839e-05
2.95746e-05
3.00721e-05
3.27845e-05
4.08511e-05
5.06656e-05
9.01176e-05
8.59386e-05
4.92648e-05
3.59175e-05
2.82172e-05
2.49122e-05
2.43637e-05
2.46682e-05
2.50729e-05
2.54079e-05
2.56909e-05
2.59164e-05
2.60822e-05
2.6198e-05
2.62723e-05
2.63102e-05
2.63141e-05
2.6284e-05
2.62175e-05
2.61083e-05
2.59459e-05
2.57184e-05
2.54254e-05
2.50746e-05
2.4641e-05
2.42986e-05
2.48191e-05
2.81527e-05
3.59625e-05
4.94577e-05
8.59982e-05
8.42909e-05
4.52327e-05
3.22019e-05
2.58429e-05
2.39161e-05
2.39014e-05
2.44796e-05
2.51046e-05
2.56225e-05
2.60323e-05
2.63472e-05
2.65785e-05
2.67389e-05
2.68397e-05
2.68895e-05
2.68925e-05
2.68484e-05
2.67523e-05
2.65944e-05
2.63615e-05
2.60399e-05
2.5616e-05
2.50755e-05
2.44193e-05
2.38134e-05
2.38301e-05
2.57935e-05
3.22244e-05
4.53653e-05
8.42884e-05
8.3111e-05
4.19599e-05
2.99814e-05
2.50293e-05
2.41691e-05
2.45845e-05
2.52517e-05
2.58845e-05
2.64101e-05
2.68227e-05
2.71354e-05
2.7364e-05
2.75222e-05
2.76214e-05
2.76699e-05
2.76716e-05
2.76263e-05
2.75289e-05
2.737e-05
2.71371e-05
2.68153e-05
2.63884e-05
2.58438e-05
2.51919e-05
2.45149e-05
2.41101e-05
2.50139e-05
3.00148e-05
4.20567e-05
8.30807e-05
8.19687e-05
3.99314e-05
2.83634e-05
2.4829e-05
2.4742e-05
2.53731e-05
2.60616e-05
2.66606e-05
2.71455e-05
2.75215e-05
2.78034e-05
2.80073e-05
2.81473e-05
2.82346e-05
2.82767e-05
2.82773e-05
2.82362e-05
2.81487e-05
2.80063e-05
2.77972e-05
2.75069e-05
2.712e-05
2.66235e-05
2.60169e-05
2.5331e-05
2.47194e-05
2.48449e-05
2.84131e-05
3.99611e-05
8.19384e-05
8.09149e-05
3.86821e-05
2.74051e-05
2.49081e-05
2.52838e-05
2.60429e-05
2.67306e-05
2.72901e-05
2.77261e-05
2.80553e-05
2.82968e-05
2.84682e-05
2.8584e-05
2.86552e-05
2.86889e-05
2.86889e-05
2.86546e-05
2.8582e-05
2.84633e-05
2.82871e-05
2.80393e-05
2.77032e-05
2.72623e-05
2.6703e-05
2.60246e-05
2.52867e-05
2.49402e-05
2.74498e-05
3.86974e-05
8.08824e-05
8.02829e-05
3.78391e-05
2.693e-05
2.51862e-05
2.57766e-05
2.65797e-05
2.72512e-05
2.77693e-05
2.8156e-05
2.84373e-05
2.86368e-05
2.87741e-05
2.88643e-05
2.89185e-05
2.89437e-05
2.89431e-05
2.89167e-05
2.88606e-05
2.87676e-05
2.86266e-05
2.84231e-05
2.81386e-05
2.77513e-05
2.72375e-05
2.65769e-05
2.57916e-05
2.52203e-05
2.69661e-05
3.78481e-05
8.02582e-05
7.97326e-05
3.72517e-05
2.6701e-05
2.54817e-05
2.61893e-05
2.69992e-05
2.76439e-05
2.81207e-05
2.84611e-05
2.86977e-05
2.8858e-05
2.89634e-05
2.90298e-05
2.90683e-05
2.90856e-05
2.90849e-05
2.9066e-05
2.90256e-05
2.89569e-05
2.8849e-05
2.86867e-05
2.84493e-05
2.81106e-05
2.76393e-05
2.70041e-05
2.62069e-05
2.55107e-05
2.67282e-05
3.72574e-05
7.9716e-05
7.925e-05
3.68397e-05
2.65998e-05
2.57343e-05
2.65087e-05
2.7315e-05
2.79316e-05
2.83703e-05
2.86699e-05
2.88677e-05
2.89941e-05
2.90723e-05
2.91185e-05
2.91438e-05
2.91546e-05
2.91538e-05
2.91415e-05
2.91145e-05
2.90666e-05
2.89871e-05
2.88599e-05
2.86627e-05
2.83657e-05
2.7932e-05
2.73226e-05
2.65247e-05
2.57568e-05
2.66198e-05
3.68437e-05
7.92397e-05
7.88469e-05
3.65544e-05
2.65667e-05
2.5938e-05
2.67483e-05
2.75449e-05
2.81355e-05
2.85418e-05
2.88077e-05
2.8974e-05
2.90734e-05
2.91299e-05
2.91604e-05
2.91755e-05
2.91814e-05
2.91807e-05
2.91735e-05
2.91571e-05
2.91254e-05
2.90682e-05
2.89689e-05
2.88037e-05
2.85404e-05
2.81381e-05
2.75526e-05
2.67613e-05
2.59545e-05
2.65814e-05
3.65577e-05
7.88406e-05
7.85345e-05
3.63636e-05
2.65671e-05
2.60935e-05
2.69206e-05
2.77049e-05
2.82736e-05
2.86543e-05
2.88945e-05
2.90373e-05
2.91167e-05
2.91576e-05
2.91769e-05
2.91848e-05
2.91872e-05
2.91866e-05
2.91831e-05
2.91742e-05
2.91542e-05
2.9113e-05
2.9034e-05
2.88926e-05
2.86546e-05
2.8277e-05
2.77117e-05
2.69306e-05
2.61052e-05
2.65778e-05
3.63666e-05
7.85305e-05
7.83213e-05
3.62464e-05
2.65778e-05
2.61988e-05
2.70328e-05
2.78062e-05
2.83589e-05
2.87219e-05
2.89447e-05
2.90719e-05
2.91383e-05
2.91693e-05
2.91814e-05
2.91848e-05
2.91851e-05
2.91846e-05
2.91834e-05
2.91792e-05
2.91667e-05
2.91357e-05
2.90699e-05
2.8944e-05
2.8723e-05
2.83623e-05
2.78121e-05
2.70406e-05
2.62076e-05
2.65864e-05
3.62494e-05
7.83184e-05
7.82135e-05
3.61906e-05
2.65859e-05
2.62518e-05
2.70881e-05
2.78553e-05
2.83994e-05
2.87533e-05
2.89674e-05
2.90868e-05
2.91468e-05
2.91729e-05
2.91816e-05
2.91829e-05
2.91822e-05
2.91818e-05
2.91817e-05
2.91798e-05
2.91708e-05
2.91448e-05
2.90854e-05
2.89672e-05
2.87547e-05
2.84028e-05
2.78607e-05
2.70948e-05
2.62592e-05
2.65935e-05
3.61934e-05
7.82108e-05
7.82142e-05
3.61899e-05
2.65855e-05
2.62516e-05
2.70879e-05
2.78551e-05
2.8399e-05
2.87528e-05
2.89668e-05
2.90861e-05
2.91461e-05
2.91722e-05
2.91809e-05
2.91822e-05
2.91816e-05
2.91812e-05
2.91811e-05
2.91792e-05
2.91702e-05
2.91443e-05
2.90848e-05
2.89666e-05
2.87542e-05
2.84023e-05
2.78602e-05
2.70945e-05
2.62588e-05
2.6593e-05
3.61926e-05
7.82109e-05
7.83232e-05
3.62442e-05
2.65766e-05
2.61983e-05
2.70323e-05
2.78055e-05
2.83577e-05
2.87203e-05
2.89429e-05
2.90699e-05
2.91362e-05
2.91671e-05
2.91792e-05
2.91827e-05
2.91831e-05
2.91827e-05
2.91815e-05
2.91774e-05
2.91649e-05
2.9134e-05
2.90682e-05
2.89423e-05
2.87214e-05
2.83608e-05
2.78108e-05
2.70394e-05
2.62064e-05
2.65847e-05
3.6247e-05
7.83189e-05
7.85373e-05
3.636e-05
2.65653e-05
2.60928e-05
2.69199e-05
2.77036e-05
2.82715e-05
2.86516e-05
2.88914e-05
2.90339e-05
2.91132e-05
2.91541e-05
2.91734e-05
2.91814e-05
2.91839e-05
2.91834e-05
2.918e-05
2.91712e-05
2.91513e-05
2.91101e-05
2.90312e-05
2.88898e-05
2.86519e-05
2.82743e-05
2.77092e-05
2.69283e-05
2.61029e-05
2.65749e-05
3.63627e-05
7.85315e-05
7.88506e-05
3.65495e-05
2.65647e-05
2.59374e-05
2.67474e-05
2.75429e-05
2.81324e-05
2.85378e-05
2.88031e-05
2.89691e-05
2.90685e-05
2.91251e-05
2.91558e-05
2.91711e-05
2.91771e-05
2.91765e-05
2.91694e-05
2.9153e-05
2.91215e-05
2.90642e-05
2.89649e-05
2.87998e-05
2.85364e-05
2.81342e-05
2.75487e-05
2.67575e-05
2.59505e-05
2.65767e-05
3.65523e-05
7.88425e-05
7.9254e-05
3.68339e-05
2.6598e-05
2.57342e-05
2.65077e-05
2.73121e-05
2.7927e-05
2.83645e-05
2.86636e-05
2.88613e-05
2.89879e-05
2.90663e-05
2.91129e-05
2.91385e-05
2.91495e-05
2.91488e-05
2.91366e-05
2.91097e-05
2.90617e-05
2.89822e-05
2.88549e-05
2.86576e-05
2.83604e-05
2.79266e-05
2.73172e-05
2.65191e-05
2.57508e-05
2.66131e-05
3.68369e-05
7.92427e-05
7.97363e-05
3.72454e-05
2.67002e-05
2.54825e-05
2.61878e-05
2.69946e-05
2.76371e-05
2.81126e-05
2.84527e-05
2.86897e-05
2.88506e-05
2.89566e-05
2.90236e-05
2.90624e-05
2.90799e-05
2.90793e-05
2.90605e-05
2.902e-05
2.89513e-05
2.88433e-05
2.86808e-05
2.84432e-05
2.81042e-05
2.76325e-05
2.6997e-05
2.61994e-05
2.55027e-05
2.67196e-05
3.72492e-05
7.97207e-05
8.02861e-05
3.7833e-05
2.69312e-05
2.51878e-05
2.57736e-05
2.65721e-05
2.7241e-05
2.77583e-05
2.81454e-05
2.84278e-05
2.86286e-05
2.87669e-05
2.88578e-05
2.89125e-05
2.89378e-05
2.89373e-05
2.89108e-05
2.88545e-05
2.87613e-05
2.86202e-05
2.84165e-05
2.81316e-05
2.77438e-05
2.72294e-05
2.65682e-05
2.57823e-05
2.52103e-05
2.69557e-05
3.78387e-05
8.02651e-05
8.09167e-05
3.86775e-05
2.74087e-05
2.49089e-05
2.52767e-05
2.60303e-05
2.67159e-05
2.72757e-05
2.77134e-05
2.80448e-05
2.82883e-05
2.84611e-05
2.85778e-05
2.86493e-05
2.86832e-05
2.86829e-05
2.86484e-05
2.85756e-05
2.84566e-05
2.82801e-05
2.8032e-05
2.76955e-05
2.72539e-05
2.66938e-05
2.60145e-05
2.52758e-05
2.49289e-05
2.74387e-05
3.86877e-05
8.08907e-05
8.19629e-05
3.99329e-05
2.83699e-05
2.48249e-05
2.47272e-05
2.53531e-05
2.60414e-05
2.66431e-05
2.71317e-05
2.7511e-05
2.77954e-05
2.8001e-05
2.81418e-05
2.82292e-05
2.82711e-05
2.82714e-05
2.82298e-05
2.81419e-05
2.7999e-05
2.77895e-05
2.7499e-05
2.71116e-05
2.66145e-05
2.60069e-05
2.532e-05
2.47074e-05
2.48328e-05
2.84035e-05
3.9954e-05
8.19394e-05
8.31187e-05
4.19963e-05
2.99862e-05
2.50167e-05
2.41437e-05
2.45562e-05
2.52267e-05
2.58654e-05
2.63967e-05
2.68135e-05
2.7129e-05
2.7359e-05
2.75176e-05
2.76166e-05
2.76644e-05
2.76654e-05
2.76193e-05
2.75212e-05
2.73617e-05
2.71283e-05
2.68063e-05
2.63792e-05
2.58343e-05
2.51815e-05
2.45032e-05
2.40976e-05
2.50019e-05
3.00087e-05
4.20697e-05
8.30967e-05
8.4312e-05
4.52786e-05
3.22031e-05
2.58215e-05
2.38826e-05
2.38675e-05
2.44537e-05
2.50878e-05
2.56123e-05
2.60261e-05
2.63429e-05
2.6575e-05
2.67351e-05
2.68349e-05
2.68834e-05
2.68852e-05
2.684e-05
2.6743e-05
2.65841e-05
2.63506e-05
2.60289e-05
2.56052e-05
2.50647e-05
2.4408e-05
2.38013e-05
2.3817e-05
2.57819e-05
3.22179e-05
4.53802e-05
8.43116e-05
8.59812e-05
4.93285e-05
3.59328e-05
2.8193e-05
2.48773e-05
2.4336e-05
2.46511e-05
2.50638e-05
2.54029e-05
2.56885e-05
2.59144e-05
2.60792e-05
2.61932e-05
2.62654e-05
2.63015e-05
2.63038e-05
2.62725e-05
2.62049e-05
2.60948e-05
2.59319e-05
2.57044e-05
2.54116e-05
2.50615e-05
2.46283e-05
2.4286e-05
2.4806e-05
2.8142e-05
3.5966e-05
4.94749e-05
8.60271e-05
9.00312e-05
5.04736e-05
4.08067e-05
3.27938e-05
3.00809e-05
2.95651e-05
2.94565e-05
2.92609e-05
2.90552e-05
2.88607e-05
2.869e-05
2.85526e-05
2.84558e-05
2.83968e-05
2.83699e-05
2.83717e-05
2.84024e-05
2.8466e-05
2.85676e-05
2.8709e-05
2.88801e-05
2.90758e-05
2.92803e-05
2.94697e-05
2.95642e-05
3.00614e-05
3.27744e-05
4.08519e-05
5.06801e-05
9.01497e-05
7.82045e-05
2.36485e-05
4.11553e-05
4.19731e-05
4.32212e-05
4.34716e-05
4.31429e-05
4.27943e-05
4.2313e-05
4.18064e-05
4.13524e-05
4.09909e-05
4.07296e-05
4.05615e-05
4.04792e-05
4.04788e-05
4.05605e-05
4.07283e-05
4.099e-05
4.13527e-05
4.18085e-05
4.23171e-05
4.28017e-05
4.3158e-05
4.35183e-05
4.32786e-05
4.2038e-05
4.12255e-05
2.37373e-05
7.83646e-05
0.000211124
0.000107004
9.26727e-05
8.48788e-05
8.22757e-05
8.09611e-05
8.00771e-05
7.92417e-05
7.84538e-05
7.77712e-05
7.72218e-05
7.6869e-05
7.6652e-05
7.65128e-05
7.6443e-05
7.64418e-05
7.65092e-05
7.66455e-05
7.68589e-05
7.72074e-05
7.77521e-05
7.84292e-05
7.92069e-05
8.0042e-05
8.09389e-05
8.22805e-05
8.49294e-05
9.27924e-05
0.000107226
0.000211568
0.000187715
9.42246e-05
8.33001e-05
7.76034e-05
7.6186e-05
7.55807e-05
7.50688e-05
7.44135e-05
7.3884e-05
7.34919e-05
7.31826e-05
7.2912e-05
7.26928e-05
7.25502e-05
7.24834e-05
7.24909e-05
7.25726e-05
7.27305e-05
7.29655e-05
7.32509e-05
7.35758e-05
7.39832e-05
7.45314e-05
7.51841e-05
7.56704e-05
7.62277e-05
7.75716e-05
8.31601e-05
9.39055e-05
0.000186976
7.06246e-05
3.04009e-05
5.11141e-05
5.42792e-05
5.73352e-05
5.96708e-05
6.09698e-05
6.11194e-05
6.05347e-05
5.95901e-05
5.85794e-05
5.76726e-05
5.69568e-05
5.64722e-05
5.62335e-05
5.62438e-05
5.65018e-05
5.70018e-05
5.77271e-05
5.86359e-05
5.96425e-05
6.05794e-05
6.11437e-05
6.09584e-05
5.95977e-05
5.72221e-05
5.41443e-05
5.09598e-05
3.00969e-05
7.03283e-05
8.18195e-05
5.64548e-05
5.07197e-05
4.46355e-05
4.03142e-05
3.80343e-05
3.67078e-05
3.57393e-05
3.49685e-05
3.42522e-05
3.36166e-05
3.30989e-05
3.2713e-05
3.24605e-05
3.23371e-05
3.2339e-05
3.2466e-05
3.27211e-05
3.3108e-05
3.36256e-05
3.42625e-05
3.49734e-05
3.57165e-05
3.66713e-05
3.80178e-05
4.03291e-05
4.46442e-05
5.05871e-05
5.6025e-05
8.1578e-05
7.86784e-05
5.97833e-05
4.88892e-05
3.69577e-05
3.01627e-05
2.712e-05
2.60695e-05
2.57118e-05
2.55374e-05
2.53328e-05
2.5124e-05
2.4959e-05
2.48435e-05
2.47712e-05
2.47354e-05
2.47318e-05
2.47604e-05
2.48249e-05
2.49332e-05
2.50943e-05
2.53041e-05
2.55201e-05
2.57024e-05
2.60772e-05
2.71591e-05
3.02788e-05
3.7012e-05
4.87549e-05
5.94714e-05
7.85671e-05
7.73594e-05
5.8021e-05
4.37279e-05
3.15813e-05
2.55594e-05
2.32175e-05
2.24187e-05
2.22928e-05
2.2379e-05
2.24898e-05
2.25796e-05
2.26598e-05
2.27303e-05
2.27823e-05
2.28074e-05
2.2802e-05
2.27664e-05
2.27055e-05
2.26309e-05
2.25594e-05
2.24793e-05
2.23858e-05
2.23244e-05
2.24823e-05
2.33019e-05
2.56183e-05
3.16238e-05
4.36324e-05
5.78116e-05
7.73398e-05
7.65548e-05
5.6541e-05
3.8479e-05
2.79742e-05
2.35772e-05
2.19729e-05
2.1735e-05
2.1923e-05
2.2202e-05
2.24571e-05
2.266e-05
2.28162e-05
2.29328e-05
2.30105e-05
2.30477e-05
2.30438e-05
2.29993e-05
2.29167e-05
2.28004e-05
2.26523e-05
2.24642e-05
2.22317e-05
2.19825e-05
2.18231e-05
2.20599e-05
2.36442e-05
2.799e-05
3.84058e-05
5.64164e-05
7.65853e-05
7.59624e-05
5.44731e-05
3.44726e-05
2.58338e-05
2.25448e-05
2.17967e-05
2.19677e-05
2.23412e-05
2.27057e-05
2.30083e-05
2.32431e-05
2.34178e-05
2.35419e-05
2.36215e-05
2.36596e-05
2.36577e-05
2.36165e-05
2.35362e-05
2.34156e-05
2.32499e-05
2.30297e-05
2.27463e-05
2.24023e-05
2.20434e-05
2.18694e-05
2.2589e-05
2.58393e-05
3.44704e-05
5.44403e-05
7.60055e-05
7.54951e-05
5.22082e-05
3.20202e-05
2.45709e-05
2.21012e-05
2.19431e-05
2.23672e-05
2.28521e-05
2.32672e-05
2.35916e-05
2.38331e-05
2.40064e-05
2.41251e-05
2.4199e-05
2.42343e-05
2.42339e-05
2.41985e-05
2.41263e-05
2.40124e-05
2.38475e-05
2.36175e-05
2.33063e-05
2.29022e-05
2.24204e-05
2.19857e-05
2.21191e-05
2.45645e-05
3.20349e-05
5.2204e-05
7.55388e-05
7.49404e-05
4.99592e-05
3.03756e-05
2.37038e-05
2.19578e-05
2.21771e-05
2.27492e-05
2.32967e-05
2.37385e-05
2.40707e-05
2.43096e-05
2.4475e-05
2.45844e-05
2.46504e-05
2.46816e-05
2.46821e-05
2.46524e-05
2.45891e-05
2.44844e-05
2.43256e-05
2.40945e-05
2.37696e-05
2.33316e-05
2.27808e-05
2.21951e-05
2.19551e-05
2.36952e-05
3.03932e-05
4.997e-05
7.49727e-05
7.44856e-05
4.7973e-05
2.92712e-05
2.3242e-05
2.20437e-05
2.24455e-05
2.30847e-05
2.36567e-05
2.41043e-05
2.44325e-05
2.46621e-05
2.48161e-05
2.49144e-05
2.49719e-05
2.49986e-05
2.49995e-05
2.49748e-05
2.49201e-05
2.48256e-05
2.46762e-05
2.4451e-05
2.41259e-05
2.3678e-05
2.31006e-05
2.24503e-05
2.20366e-05
2.32373e-05
2.92887e-05
4.79942e-05
7.45063e-05
7.41304e-05
4.63471e-05
2.852e-05
2.30139e-05
2.22043e-05
2.27038e-05
2.3367e-05
2.39389e-05
2.43776e-05
2.46931e-05
2.49088e-05
2.50492e-05
2.51358e-05
2.51849e-05
2.52072e-05
2.52082e-05
2.51878e-05
2.51411e-05
2.50571e-05
2.49194e-05
2.47059e-05
2.4391e-05
2.39504e-05
2.33735e-05
2.27032e-05
2.21985e-05
2.3014e-05
2.85366e-05
4.63743e-05
7.41416e-05
7.38623e-05
4.50997e-05
2.80143e-05
2.29083e-05
2.23681e-05
2.29249e-05
2.35924e-05
2.41526e-05
2.45751e-05
2.48736e-05
2.50734e-05
2.52e-05
2.52755e-05
2.53169e-05
2.53352e-05
2.5336e-05
2.53193e-05
2.52797e-05
2.52058e-05
2.50806e-05
2.48815e-05
2.45825e-05
2.41579e-05
2.35941e-05
2.29229e-05
2.23652e-05
2.29125e-05
2.80301e-05
4.51294e-05
7.38667e-05
7.36696e-05
4.42094e-05
2.76791e-05
2.28597e-05
2.25028e-05
2.30953e-05
2.37599e-05
2.43056e-05
2.47109e-05
2.49927e-05
2.51776e-05
2.52919e-05
2.53581e-05
2.53931e-05
2.54081e-05
2.54087e-05
2.53949e-05
2.5361e-05
2.52958e-05
2.5182e-05
2.4997e-05
2.47143e-05
2.43074e-05
2.37595e-05
2.30936e-05
2.2503e-05
2.28676e-05
2.76961e-05
4.42388e-05
7.36696e-05
7.35443e-05
4.3643e-05
2.7479e-05
2.28395e-05
2.25957e-05
2.32095e-05
2.38702e-05
2.44041e-05
2.47957e-05
2.50644e-05
2.52381e-05
2.53433e-05
2.54027e-05
2.54331e-05
2.54459e-05
2.54463e-05
2.54344e-05
2.54046e-05
2.53457e-05
2.52406e-05
2.50665e-05
2.47968e-05
2.4404e-05
2.3869e-05
2.32085e-05
2.25978e-05
2.28491e-05
2.7496e-05
4.36694e-05
7.35418e-05
7.34822e-05
4.33764e-05
2.73873e-05
2.2833e-05
2.26424e-05
2.32663e-05
2.39247e-05
2.44522e-05
2.48364e-05
2.50982e-05
2.52657e-05
2.53661e-05
2.54219e-05
2.545e-05
2.54616e-05
2.54619e-05
2.5451e-05
2.54234e-05
2.53678e-05
2.52673e-05
2.50992e-05
2.48365e-05
2.44513e-05
2.39232e-05
2.32656e-05
2.26451e-05
2.28427e-05
2.74025e-05
4.33922e-05
7.34784e-05
7.34799e-05
4.33748e-05
2.73862e-05
2.28321e-05
2.26415e-05
2.32657e-05
2.39244e-05
2.44521e-05
2.48365e-05
2.50984e-05
2.5266e-05
2.53663e-05
2.54221e-05
2.54501e-05
2.54616e-05
2.54619e-05
2.54511e-05
2.54235e-05
2.5368e-05
2.52675e-05
2.50993e-05
2.48365e-05
2.44511e-05
2.39227e-05
2.32648e-05
2.26438e-05
2.28411e-05
2.74005e-05
4.33887e-05
7.34769e-05
7.3537e-05
4.36336e-05
2.74751e-05
2.28367e-05
2.2593e-05
2.32076e-05
2.38692e-05
2.44039e-05
2.4796e-05
2.50651e-05
2.52387e-05
2.53438e-05
2.5403e-05
2.54333e-05
2.54459e-05
2.54463e-05
2.54345e-05
2.54049e-05
2.53461e-05
2.5241e-05
2.50669e-05
2.4797e-05
2.44036e-05
2.38678e-05
2.3206e-05
2.25939e-05
2.28443e-05
2.74898e-05
4.36581e-05
7.3537e-05
7.36575e-05
4.41931e-05
2.76727e-05
2.28549e-05
2.24981e-05
2.3092e-05
2.37584e-05
2.43055e-05
2.47115e-05
2.49936e-05
2.51785e-05
2.52925e-05
2.53583e-05
2.53931e-05
2.54079e-05
2.54085e-05
2.53948e-05
2.53611e-05
2.52961e-05
2.51825e-05
2.49975e-05
2.47146e-05
2.43068e-05
2.37577e-05
2.30898e-05
2.24969e-05
2.286e-05
2.76861e-05
4.42192e-05
7.36609e-05
7.3846e-05
4.50768e-05
2.80066e-05
2.29019e-05
2.23616e-05
2.29206e-05
2.35906e-05
2.41526e-05
2.45761e-05
2.48749e-05
2.50743e-05
2.52003e-05
2.52753e-05
2.53162e-05
2.53343e-05
2.5335e-05
2.53185e-05
2.52792e-05
2.52057e-05
2.50808e-05
2.48819e-05
2.45826e-05
2.41572e-05
2.35919e-05
2.29182e-05
2.23577e-05
2.29033e-05
2.80179e-05
4.51013e-05
7.38536e-05
7.41108e-05
4.63183e-05
2.85137e-05
2.30061e-05
2.2196e-05
2.26988e-05
2.33654e-05
2.39395e-05
2.43791e-05
2.46945e-05
2.49093e-05
2.50488e-05
2.51345e-05
2.51829e-05
2.52049e-05
2.52058e-05
2.51857e-05
2.51394e-05
2.5056e-05
2.49189e-05
2.47057e-05
2.43908e-05
2.39495e-05
2.3371e-05
2.2698e-05
2.21901e-05
2.30039e-05
2.85247e-05
4.63382e-05
7.41237e-05
7.44637e-05
4.79389e-05
2.92642e-05
2.32314e-05
2.20335e-05
2.24404e-05
2.30842e-05
2.36583e-05
2.41063e-05
2.44336e-05
2.46617e-05
2.48142e-05
2.49111e-05
2.49678e-05
2.49941e-05
2.4995e-05
2.49707e-05
2.49166e-05
2.48228e-05
2.46742e-05
2.44497e-05
2.41248e-05
2.36765e-05
2.30977e-05
2.24445e-05
2.20269e-05
2.32255e-05
2.92745e-05
4.79508e-05
7.44831e-05
7.49173e-05
4.99201e-05
3.03673e-05
2.36897e-05
2.19466e-05
2.21738e-05
2.27508e-05
2.32998e-05
2.37406e-05
2.40707e-05
2.43072e-05
2.44705e-05
2.45782e-05
2.46433e-05
2.46741e-05
2.46747e-05
2.46454e-05