/*--------------------------------*- C++ -*----------------------------------*\
| =========                 |                                                 |
| \\      /  F ield         | OpenFOAM: The Open Source CFD Toolbox           |
|  \\    /   O peration     | Version:  2312                                  |
|   \\  /    A nd           | Website:  www.openfoam.com                      |
|    \\/     M anipulation  |                                                 |
\*---------------------------------------------------------------------------*/
FoamFile
{
    version     2.0;
    format      ascii;
    arch        "LSB;label=32;scalar=64";
    class       volScalarField;
    location    "850";
    object      nut;
}
// * * * * * * * * * * * * * * * * * * * * * * * * * * * * * * * * * * * * * //

dimensions      [0 2 -1 0 0 0 0];

internalField   nonuniform List<scalar> 
27000
(
3.95041e-06
6.7058e-06
9.36825e-06
1.17528e-05
1.40703e-05
1.62332e-05
1.81965e-05
1.98548e-05
2.12812e-05
2.25003e-05
2.35127e-05
2.43141e-05
2.49089e-05
2.53036e-05
2.55005e-05
2.55005e-05
2.53035e-05
2.49087e-05
2.43139e-05
2.35123e-05
2.24999e-05
2.12808e-05
1.98541e-05
1.81954e-05
1.62314e-05
1.40675e-05
1.17487e-05
9.3632e-06
6.70117e-06
3.94791e-06
5.74988e-06
1.27926e-06
5.15703e-06
9.07596e-06
1.31501e-05
1.7017e-05
2.06671e-05
2.40582e-05
2.71261e-05
2.98485e-05
3.2196e-05
3.41427e-05
3.56539e-05
3.66852e-05
3.72072e-05
3.72062e-05
3.66824e-05
3.56498e-05
3.4138e-05
3.21916e-05
2.98449e-05
2.71227e-05
2.40543e-05
2.06626e-05
1.70127e-05
1.31452e-05
9.07205e-06
5.15319e-06
1.27718e-06
5.747e-06
9.22675e-06
7.13464e-06
1.45589e-05
2.61525e-05
3.68257e-05
4.6144e-05
5.46535e-05
6.26076e-05
6.98365e-05
7.6209e-05
8.16431e-05
8.60828e-05
8.94812e-05
9.17835e-05
9.29463e-05
9.29488e-05
9.17915e-05
8.94971e-05
8.61102e-05
8.16872e-05
7.62766e-05
6.99207e-05
6.26987e-05
5.47408e-05
4.62205e-05
3.68863e-05
2.62076e-05
1.45837e-05
7.12096e-06
9.22267e-06
1.21593e-05
1.08447e-05
2.61197e-05
5.26324e-05
7.81265e-05
9.62177e-05
0.000109715
0.000120747
0.000130012
0.000137694
0.000143978
0.000148947
0.00015265
0.000155115
0.000156349
0.000156356
0.000155137
0.000152691
0.000149014
0.000144077
0.000137826
0.00013017
0.000120912
0.000109865
9.63432e-05
7.82495e-05
5.27727e-05
2.6193e-05
1.08365e-05
1.21566e-05
1.49299e-05
1.44791e-05
3.69342e-05
7.6215e-05
0.000113176
0.000139012
0.000155888
0.000167762
0.000176636
0.000183059
0.000188034
0.000191859
0.000194641
0.000196463
0.000197369
0.000197377
0.00019649
0.000194689
0.000191932
0.000188131
0.000183167
0.000176774
0.000167912
0.000156022
0.000139144
0.000113336
7.63949e-05
3.70239e-05
1.44735e-05
1.49289e-05
1.7496e-05
1.84119e-05
4.77515e-05
9.53173e-05
0.000137836
0.000167267
0.000185379
0.000196775
0.000204289
0.000209353
0.000212884
0.000215395
0.000217136
0.000218244
0.000218787
0.000218795
0.000218268
0.000217179
0.000215457
0.000212964
0.000209447
0.000204397
0.000196888
0.000185501
0.000167435
0.000138024
9.55058e-05
4.78433e-05
1.84076e-05
1.74965e-05
1.98333e-05
2.25477e-05
5.86064e-05
0.000111595
0.000155836
0.000185166
0.000202878
0.000213238
0.000219375
0.000223092
0.000225406
0.000226885
0.000227829
0.000228398
0.000228669
0.000228676
0.000228419
0.000227865
0.000226935
0.00022547
0.000223166
0.000219457
0.000213329
0.000202987
0.00018531
0.000156008
0.000111761
5.86737e-05
2.25394e-05
1.9835e-05
2.19261e-05
2.67268e-05
6.90961e-05
0.000125656
0.000169976
0.000197442
0.000213445
0.000222331
0.000227157
0.000229759
0.000231163
0.000231926
0.000232342
0.000232563
0.000232662
0.000232668
0.000232581
0.000232372
0.000231967
0.000231214
0.000229817
0.000227221
0.000222403
0.000213533
0.000197553
0.000170099
0.000125779
6.91401e-05
2.67149e-05
2.19293e-05
2.37422e-05
3.08346e-05
7.88866e-05
0.000137662
0.000181057
0.000206162
0.000220084
0.000227387
0.000231035
0.000232762
0.000233524
0.000233824
0.000233921
0.000233941
0.000233943
0.000233948
0.000233957
0.000233946
0.000233858
0.000233564
0.000232806
0.000231082
0.000227439
0.000220145
0.000206234
0.00018113
0.000137738
7.89053e-05
3.08189e-05
2.37461e-05
2.52979e-05
3.47124e-05
8.77691e-05
0.000147706
0.000188848
0.000212176
0.000224304
0.000230228
0.00023291
0.000233985
0.000234315
0.000234335
0.000234256
0.000234173
0.000234127
0.000234131
0.000234185
0.000234276
0.000234361
0.000234344
0.000234014
0.000232939
0.000230258
0.000224337
0.000212216
0.000188893
0.00014774
8.77637e-05
3.4693e-05
2.53022e-05
2.6594e-05
3.8205e-05
9.55325e-05
0.000156123
0.000195332
0.000216576
0.000227077
0.000231856
0.00023379
0.0002344
0.000234455
0.000234318
0.000234153
0.000234026
0.000233961
0.000233965
0.000234036
0.000234167
0.000234335
0.000234472
0.000234415
0.000233801
0.000231865
0.000227084
0.000216585
0.000195341
0.00015612
9.55058e-05
3.81822e-05
2.65987e-05
2.76304e-05
4.1177e-05
0.000101963
0.000162854
0.000200391
0.000219821
0.000228949
0.000232818
0.000234193
0.000234486
0.000234371
0.000234154
0.000233955
0.000233818
0.00023375
0.000233752
0.000233824
0.000233964
0.000234162
0.000234378
0.000234488
0.000234189
0.000232807
0.000228933
0.000219802
0.000200368
0.00016282
0.000101919
4.11511e-05
2.76354e-05
2.84071e-05
4.35133e-05
0.00010691
0.000167935
0.000204092
0.000222109
0.000230193
0.000233392
0.000234376
0.000234461
0.000234248
0.000233994
0.000233789
0.000233654
0.00023359
0.000233591
0.000233657
0.000233792
0.000233996
0.000234246
0.000234452
0.000234359
0.000233366
0.00023016
0.00022207
0.000204044
0.000167871
0.000106853
4.34849e-05
2.84125e-05
2.89246e-05
4.51231e-05
0.000110264
0.000171334
0.00020651
0.000223566
0.000230956
0.000233719
0.000234457
0.000234417
0.000234153
0.000233885
0.000233682
0.000233555
0.000233495
0.000233496
0.000233556
0.000233682
0.000233882
0.000234144
0.000234401
0.000234431
0.000233683
0.000230912
0.000223514
0.000206448
0.000171259
0.000110201
4.50931e-05
2.89301e-05
2.91829e-05
4.59441e-05
0.000111958
0.000173032
0.000207702
0.000224275
0.00023132
0.000233869
0.000234489
0.000234392
0.000234106
0.000233834
0.000233635
0.000233512
0.000233455
0.000233455
0.000233512
0.000233632
0.000233828
0.000234093
0.000234372
0.000234459
0.000233829
0.000231271
0.000224218
0.000207636
0.000172953
0.000111892
4.59135e-05
2.91886e-05
2.91824e-05
4.5945e-05
0.000111961
0.000173035
0.000207705
0.000224277
0.000231322
0.000233872
0.000234492
0.000234396
0.00023411
0.000233838
0.000233639
0.000233516
0.000233459
0.000233459
0.000233516
0.000233636
0.000233832
0.000234097
0.000234375
0.000234462
0.000233832
0.000231273
0.00022422
0.000207639
0.000172957
0.000111897
4.59146e-05
2.91881e-05
2.8923e-05
4.51257e-05
0.000110275
0.000171346
0.000206519
0.000223574
0.000230964
0.000233728
0.000234467
0.000234429
0.000234165
0.000233897
0.000233695
0.000233567
0.000233507
0.000233508
0.000233568
0.000233694
0.000233893
0.000234156
0.000234412
0.000234441
0.000233693
0.00023092
0.000223522
0.000206458
0.000171272
0.000110214
4.50961e-05
2.89285e-05
2.84046e-05
4.35172e-05
0.000106929
0.000167955
0.000204108
0.000222123
0.000230207
0.000233407
0.000234393
0.000234479
0.000234267
0.000234013
0.000233808
0.000233673
0.000233608
0.000233609
0.000233675
0.00023381
0.000234014
0.000234264
0.000234469
0.000234375
0.000233381
0.000230173
0.000222083
0.00020406
0.000167893
0.000106874
4.34896e-05
2.84099e-05
2.76271e-05
4.11818e-05
0.000101991
0.000162885
0.000200417
0.000219844
0.000228971
0.00023284
0.000234216
0.00023451
0.000234396
0.000234178
0.000233979
0.000233841
0.000233773
0.000233775
0.000233846
0.000233987
0.000234185
0.000234401
0.00023451
0.00023421
0.000232826
0.000228951
0.00021982
0.000200389
0.000162848
0.000101947
4.11569e-05
2.76319e-05
2.65901e-05
3.82101e-05
9.55685e-05
0.000156167
0.000195372
0.00021661
0.000227108
0.000231886
0.000233819
0.000234429
0.000234484
0.000234346
0.00023418
0.000234052
0.000233987
0.00023399
0.000234061
0.000234192
0.000234361
0.000234498
0.00023444
0.000233826
0.000231887
0.000227106
0.000216607
0.000195367
0.000156154
9.55401e-05
3.81885e-05
2.65945e-05
2.52936e-05
3.47171e-05
8.7813e-05
0.000147766
0.000188905
0.000212224
0.000224345
0.000230265
0.000232944
0.000234017
0.000234346
0.000234365
0.000234284
0.000234199
0.000234152
0.000234155
0.00023421
0.000234301
0.000234387
0.00023437
0.000234041
0.000232966
0.000230284
0.000224363
0.000212244
0.000188926
0.000147781
8.78015e-05
3.46991e-05
2.52974e-05
2.37378e-05
3.08384e-05
7.89374e-05
0.00013774
0.000181134
0.000206228
0.000220138
0.000227432
0.000231075
0.000232798
0.000233556
0.000233854
0.000233948
0.000233965
0.000233965
0.00023397
0.000233979
0.00023397
0.000233883
0.00023359
0.000232834
0.000231111
0.000227469
0.000220176
0.000206271
0.000181177
0.000137784
7.89441e-05
3.08239e-05
2.37409e-05
2.19217e-05
2.67288e-05
6.91522e-05
0.000125754
0.000170076
0.000197527
0.000213512
0.000222384
0.000227202
0.000229798
0.000231196
0.000231954
0.000232366
0.000232584
0.000232681
0.000232686
0.0002326
0.000232393
0.00023199
0.00023124
0.000229846
0.000227253
0.000222437
0.000213571
0.000197598
0.000170155
0.000125832
6.9178e-05
2.67175e-05
2.1924e-05
1.98294e-05
2.25475e-05
5.86674e-05
0.000111713
0.000155959
0.000185271
0.00020296
0.000213304
0.000219429
0.000223137
0.000225444
0.000226915
0.000227854
0.000228418
0.000228688
0.000228694
0.000228437
0.000227885
0.000226959
0.000225498
0.0002232
0.000219496
0.000213373
0.000203037
0.000185367
0.000156072
0.000111822
5.87113e-05
2.25394e-05
1.98304e-05
1.74923e-05
1.84111e-05
4.78172e-05
9.5449e-05
0.000137977
0.000167394
0.000185476
0.000196858
0.000204361
0.000209412
0.000212932
0.000215433
0.000217168
0.00021827
0.000218811
0.000218818
0.000218291
0.000217204
0.000215486
0.000213
0.000209492
0.00020445
0.000196947
0.000185568
0.000167513
0.000138104
9.55762e-05
4.78794e-05
1.84064e-05
1.74923e-05
1.49262e-05
1.44754e-05
3.69938e-05
7.63464e-05
0.000113315
0.000139135
0.000156
0.000167872
0.000176734
0.000183135
0.0001881
0.000191915
0.000194688
0.000196506
0.000197409
0.000197416
0.000196529
0.000194729
0.000191976
0.000188182
0.000183231
0.00017685
0.000167995
0.000156107
0.000139235
0.000113429
7.64712e-05
3.70554e-05
1.447e-05
1.49251e-05
1.21557e-05
1.08384e-05
2.61648e-05
5.27392e-05
7.82402e-05
9.63302e-05
0.000109831
0.000120863
0.00013012
0.000137789
0.00014406
0.000149019
0.000152717
0.000155179
0.000156413
0.00015642
0.000155201
0.000152756
0.000149079
0.000144145
0.0001379
0.00013025
0.000120998
0.000109954
9.64328e-05
7.83362e-05
5.28429e-05
2.62167e-05
1.08314e-05
1.21534e-05
9.22343e-06
7.12666e-06
1.45714e-05
2.61926e-05
3.68757e-05
4.62037e-05
5.4719e-05
6.26758e-05
6.99033e-05
7.62714e-05
8.16998e-05
8.614e-05
8.9541e-05
9.18456e-05
9.30103e-05
9.30142e-05
9.18577e-05
8.95623e-05
8.61722e-05
8.17458e-05
7.63355e-05
6.99794e-05
6.27561e-05
5.47952e-05
4.62691e-05
3.69269e-05
2.62367e-05
1.45902e-05
7.11665e-06
9.22031e-06
5.74783e-06
1.27788e-06
5.15331e-06
9.07227e-06
1.31462e-05
1.70135e-05
2.06636e-05
2.40553e-05
2.7124e-05
2.98473e-05
3.21959e-05
3.41461e-05
3.56598e-05
3.66927e-05
3.72159e-05
3.72159e-05
3.66926e-05
3.56598e-05
3.41463e-05
3.21966e-05
2.98485e-05
2.71252e-05
2.40557e-05
2.0663e-05
1.70122e-05
1.31437e-05
9.06964e-06
5.14994e-06
1.27626e-06
5.74538e-06
3.94893e-06
6.70293e-06
9.36457e-06
1.17489e-05
1.40662e-05
1.62288e-05
1.81918e-05
1.98497e-05
2.12758e-05
2.24944e-05
2.35062e-05
2.43063e-05
2.49006e-05
2.5295e-05
2.54917e-05
2.54916e-05
2.52945e-05
2.48999e-05
2.43054e-05
2.35051e-05
2.24932e-05
2.12745e-05
1.98483e-05
1.81901e-05
1.62267e-05
1.40635e-05
1.17454e-05
9.36051e-06
6.69934e-06
3.947e-06
3.56559e-06
6.09393e-06
8.6942e-06
1.10598e-05
1.34259e-05
1.56642e-05
1.77298e-05
1.9509e-05
2.10508e-05
2.23745e-05
2.34828e-05
2.43842e-05
2.50702e-05
2.55295e-05
2.57594e-05
2.5759e-05
2.55283e-05
2.50681e-05
2.43813e-05
2.34794e-05
2.23702e-05
2.10455e-05
1.95018e-05
1.77229e-05
1.56598e-05
1.3425e-05
1.10631e-05
8.70099e-06
6.10204e-06
3.57047e-06
5.12864e-06
1.62472e-06
7.48485e-06
1.1069e-05
1.46505e-05
1.76632e-05
2.02647e-05
2.26768e-05
2.47748e-05
2.65768e-05
2.80879e-05
2.92968e-05
3.01969e-05
3.07958e-05
3.10957e-05
3.10961e-05
3.07966e-05
3.01972e-05
2.92948e-05
2.80821e-05
2.65653e-05
2.47597e-05
2.26612e-05
2.02527e-05
1.76749e-05
1.46674e-05
1.10842e-05
7.493e-06
1.63161e-06
5.13571e-06
8.69116e-06
1.0266e-05
1.32106e-05
1.66942e-05
2.18642e-05
2.73122e-05
3.23477e-05
3.6774e-05
4.08158e-05
4.4436e-05
4.75011e-05
4.9972e-05
5.1844e-05
5.31033e-05
5.374e-05
5.37474e-05
5.31253e-05
5.18789e-05
5.00148e-05
4.75386e-05
4.44151e-05
4.07715e-05
3.67208e-05
3.22984e-05
2.72712e-05
2.18386e-05
1.66748e-05
1.32098e-05
1.03163e-05
8.69922e-06
1.15674e-05
1.34715e-05
1.78324e-05
2.55406e-05
3.56276e-05
4.62644e-05
5.57942e-05
6.41524e-05
7.15635e-05
7.82274e-05
8.39381e-05
8.8529e-05
9.19603e-05
9.42327e-05
9.53707e-05
9.53873e-05
9.42808e-05
9.20342e-05
8.8615e-05
8.40083e-05
7.82507e-05
7.15292e-05
6.40797e-05
5.56857e-05
4.61435e-05
3.552e-05
2.54883e-05
1.78205e-05
1.35102e-05
1.15713e-05
1.44137e-05
1.59423e-05
2.27236e-05
3.55824e-05
5.38684e-05
7.30373e-05
8.91989e-05
0.000102004
0.000112426
0.000121399
0.000128709
0.000134396
0.000138545
0.000141179
0.000142465
0.000142475
0.000141208
0.000138592
0.000134448
0.000128734
0.000121386
0.00011234
0.000101846
8.89616e-05
7.27895e-05
5.37082e-05
3.54904e-05
2.26729e-05
1.59742e-05
1.44133e-05
1.71252e-05
1.81393e-05
2.85184e-05
4.67042e-05
7.26373e-05
9.91162e-05
0.000121366
0.000137549
0.000149295
0.000158304
0.000165272
0.000170528
0.000174284
0.000176677
0.000177841
0.000177845
0.000176689
0.0001743
0.000170535
0.000165251
0.000158243
0.000149189
0.000137395
0.000121135
9.88642e-05
7.24372e-05
4.66136e-05
2.84515e-05
1.81644e-05
1.71218e-05
1.96399e-05
2.05557e-05
3.38618e-05
5.79865e-05
9.02341e-05
0.000121655
0.000146197
0.000163628
0.000175742
0.000184319
0.000190511
0.000194961
0.000198041
0.000199975
0.000200906
0.000200906
0.000199973
0.000198034
0.000194941
0.00019047
0.000184253
0.000175652
0.000163515
0.000146048
0.000121469
9.01012e-05
5.79455e-05
3.3824e-05
2.05468e-05
1.96361e-05
2.19345e-05
2.30523e-05
3.89849e-05
6.86556e-05
0.000105543
0.000139206
0.00016425
0.000181665
0.0001934
0.000201281
0.000206622
0.000210245
0.000212643
0.000214106
0.000214798
0.000214795
0.000214095
0.000212623
0.000210211
0.000206573
0.000201218
0.000193327
0.000181583
0.000164157
0.000139114
0.000105501
6.86803e-05
3.89612e-05
2.30412e-05
2.193e-05
2.40346e-05
2.53801e-05
4.39083e-05
7.86777e-05
0.000118689
0.000152792
0.000177365
0.000194006
0.000204895
0.000211905
0.000216399
0.000219274
0.000221077
0.000222132
0.000222618
0.000222613
0.000222116
0.000221049
0.000219234
0.000216349
0.000211847
0.000204835
0.000193948
0.000177312
0.000152761
0.000118715
7.87436e-05
4.38985e-05
2.5371e-05
2.40309e-05
2.58762e-05
2.74729e-05
4.83755e-05
8.742e-05
0.000129991
0.000163497
0.000186993
0.000202491
0.000212326
0.000218411
0.000222116
0.000224345
0.00022566
0.000226389
0.000226712
0.000226705
0.000226371
0.000225629
0.000224304
0.000222068
0.000218361
0.000212279
0.000202452
0.000186968
0.000163496
0.000130028
8.74997e-05
4.83783e-05
2.7467e-05
2.58737e-05
2.74372e-05
2.92968e-05
5.22593e-05
9.46149e-05
0.000138434
0.000171571
0.000193992
0.000208325
0.00021712
0.000222341
0.000225357
0.000227057
0.000227989
0.00022847
0.000228671
0.000228665
0.000228452
0.000227959
0.000227019
0.000225315
0.000222301
0.000217087
0.000208305
0.000193989
0.000171592
0.000138485
9.46947e-05
5.22726e-05
2.92938e-05
2.74356e-05
2.87024e-05
3.08136e-05
5.54891e-05
0.00010036
0.00014483
0.000177505
0.000198978
0.000212294
0.00022019
0.000224685
0.000227143
0.000228433
0.00022908
0.000229383
0.000229498
0.000229492
0.000229366
0.000229055
0.000228402
0.00022711
0.000224656
0.00022017
0.000212288
0.00019899
0.000177537
0.000144883
0.000100428
5.55083e-05
3.08128e-05
2.87016e-05
2.96606e-05
3.19885e-05
5.80057e-05
0.000104743
0.000149518
0.000181713
0.000202403
0.000214913
0.000222111
0.000226053
0.000228098
0.000229093
0.000229541
0.000229723
0.000229781
0.000229776
0.000229709
0.00022952
0.000229068
0.000228073
0.000226034
0.000222102
0.000214918
0.000202422
0.000181746
0.000149561
0.000104784
5.80232e-05
3.19888e-05
2.96603e-05
3.03038e-05
3.27907e-05
5.97299e-05
0.000107711
0.000152619
0.000184428
0.000204555
0.000216508
0.000223231
0.000226804
0.000228578
0.000229385
0.000229709
0.000229817
0.000229841
0.000229837
0.000229805
0.000229692
0.000229365
0.00022856
0.000226792
0.000223229
0.000216518
0.000204577
0.000184458
0.000152652
0.000107741
5.97455e-05
3.27913e-05
3.03037e-05
3.06268e-05
3.31979e-05
6.06067e-05
0.000109206
0.000154165
0.000185763
0.000205596
0.000217263
0.000223747
0.000227135
0.000228775
0.000229491
0.000229756
0.000229829
0.000229837
0.000229834
0.000229819
0.000229741
0.000229474
0.000228761
0.000227126
0.000223748
0.000217275
0.000205618
0.00018579
0.000154192
0.000109229
6.06197e-05
3.3198e-05
3.06267e-05
3.06269e-05
3.31966e-05
6.06058e-05
0.000109207
0.000154167
0.000185765
0.000205597
0.000217263
0.000223745
0.000227132
0.000228772
0.000229487
0.000229752
0.000229825
0.000229833
0.00022983
0.000229815
0.000229738
0.000229471
0.000228758
0.000227124
0.000223746
0.000217273
0.000205617
0.000185789
0.000154192
0.000109228
6.06176e-05
3.31965e-05
3.06267e-05
3.03042e-05
3.27865e-05
5.97269e-05
0.000107714
0.000152625
0.000184433
0.000204557
0.000216506
0.000223226
0.000226795
0.000228567
0.000229373
0.000229697
0.000229805
0.00022983
0.000229826
0.000229794
0.000229682
0.000229355
0.000228551
0.000226784
0.000223223
0.000216513
0.000204574
0.000184457
0.000152651
0.000107738
5.97389e-05
3.27868e-05
3.03038e-05
2.96611e-05
3.19817e-05
5.80001e-05
0.000104747
0.000149527
0.00018172
0.000202405
0.000214909
0.000222102
0.00022604
0.000228081
0.000229075
0.000229523
0.000229705
0.000229763
0.000229759
0.000229692
0.000229505
0.000229053
0.000228059
0.000226022
0.000222092
0.00021491
0.000202417
0.000181743
0.000149557
0.000104778
5.80121e-05
3.19816e-05
2.96604e-05
2.8703e-05
3.08042e-05
5.54796e-05
0.000100364
0.000144839
0.000177512
0.000198979
0.000212288
0.000220178
0.000224669
0.000227123
0.000228412
0.000229058
0.000229361
0.000229477
0.000229472
0.000229347
0.000229036
0.000228385
0.000227094
0.000224642
0.000220159
0.000212279
0.000198983
0.000177531
0.000144875
0.000100414
5.54909e-05
3.0803e-05
2.87018e-05
2.74377e-05
2.9285e-05
5.22429e-05
9.46188e-05
0.000138441
0.000171575
0.000193991
0.000208318
0.000217107
0.000222323
0.000225336
0.000227034
0.000227966
0.000228448
0.00022865
0.000228645
0.000228432
0.000227941
0.000227002
0.0002253
0.000222288
0.000217076
0.000208296
0.000193981
0.000171582
0.000138471
9.46722e-05
5.22476e-05
2.92818e-05
2.7436e-05
2.58767e-05
2.74594e-05
4.83548e-05
8.7423e-05
0.000129993
0.000163496
0.000186988
0.000202482
0.000212314
0.000218395
0.000222098
0.000224327
0.000225642
0.000226372
0.000226695
0.00022669
0.000226355
0.000225615
0.000224291
0.000222056
0.000218351
0.000212271
0.000202446
0.000186961
0.000163485
0.00013001
8.7472e-05
4.83499e-05
2.74536e-05
2.58743e-05
2.40349e-05
2.53656e-05
4.38845e-05
7.86769e-05
0.000118683
0.000152782
0.000177354
0.000193997
0.000204884
0.000211893
0.000216388
0.000219263
0.000221068
0.000222124
0.00022261
0.000222605
0.000222109
0.000221042
0.000219227
0.000216343
0.000211843
0.000204832
0.000193945
0.000177306
0.000152748
0.000118689
7.87124e-05
4.38696e-05
2.53571e-05
2.40318e-05
2.19346e-05
2.30383e-05
3.89583e-05
6.86438e-05
0.000105517
0.000139178
0.000164231
0.000181653
0.000193392
0.000201276
0.000206619
0.000210246
0.000212647
0.000214111
0.000214803
0.000214799
0.000214099
0.000212626
0.000210214
0.000206575
0.000201221
0.00019333
0.000181584
0.000164154
0.0001391
0.000105472
6.86482e-05
3.89332e-05
2.30283e-05
2.1931e-05
1.96392e-05
2.05443e-05
3.38312e-05
5.7954e-05
9.01806e-05
0.000121601
0.000146162
0.000163609
0.000175732
0.000184319
0.000190519
0.000194976
0.000198059
0.000199993
0.000200924
0.000200923
0.000199988
0.000198048
0.000194953
0.00019048
0.000184262
0.00017566
0.000163519
0.000146046
0.000121454
9.00692e-05
5.79123e-05
3.37965e-05
2.05359e-05
1.96362e-05
1.71259e-05
1.81457e-05
2.8481e-05
4.66594e-05
7.25661e-05
9.90393e-05
0.000121306
0.000137514
0.000149278
0.000158304
0.000165286
0.000170554
0.000174315
0.000176707
0.000177868
0.000177869
0.000176711
0.00017432
0.000170551
0.000165263
0.000158252
0.000149195
0.000137397
0.000121132
9.88491e-05
7.24112e-05
4.65845e-05
2.84261e-05
1.81642e-05
1.71234e-05
1.44153e-05
1.59502e-05
2.26941e-05
3.55403e-05
5.38047e-05
7.29547e-05
8.91213e-05
0.000101953
0.0001124
0.0001214
0.000128724
0.000134424
0.000138578
0.000141206
0.000142488
0.000142494
0.000141222
0.000138601
0.000134454
0.000128733
0.000121379
0.00011233
0.000101835
8.89468e-05
7.27729e-05
5.36858e-05
3.54687e-05
2.26534e-05
1.59746e-05
1.44152e-05
1.15701e-05
1.34812e-05
1.78219e-05
2.55047e-05
3.55786e-05
4.62105e-05
5.5744e-05
6.41146e-05
7.15388e-05
7.82216e-05
8.39482e-05
8.8545e-05
9.19737e-05
9.42396e-05
9.53705e-05
9.53803e-05
9.42682e-05
9.20172e-05
8.85948e-05
8.39855e-05
7.82257e-05
7.15035e-05
6.40555e-05
5.56631e-05
4.61236e-05
3.55006e-05
2.54653e-05
1.78132e-05
1.35112e-05
1.15732e-05
8.69486e-06
1.02789e-05
1.32052e-05
1.66748e-05
2.18386e-05
2.72795e-05
3.2312e-05
3.6737e-05
4.07836e-05
4.44127e-05
4.74995e-05
4.997e-05
5.18376e-05
5.30922e-05
5.37247e-05
5.37287e-05
5.31039e-05
5.1856e-05
4.9992e-05
4.75157e-05
4.43854e-05
4.07408e-05
3.66901e-05
3.22695e-05
2.7249e-05
2.18208e-05
1.6661e-05
1.3205e-05
1.03171e-05
8.70071e-06
5.13117e-06
1.62646e-06
7.48457e-06
1.10716e-05
1.46539e-05
1.76634e-05
2.02498e-05
2.26584e-05
2.47561e-05
2.65585e-05
2.80701e-05
2.92766e-05
3.01752e-05
3.07732e-05
3.10725e-05
3.10723e-05
3.07726e-05
3.01733e-05
2.92725e-05
2.80629e-05
2.65467e-05
2.47414e-05
2.26433e-05
2.02374e-05
1.76692e-05
1.46644e-05
1.10817e-05
7.49121e-06
1.63126e-06
5.13655e-06
3.56728e-06
6.09687e-06
8.69702e-06
1.10619e-05
1.3427e-05
1.56643e-05
1.7729e-05
1.95079e-05
2.10491e-05
2.23728e-05
2.34814e-05
2.43845e-05
2.50709e-05
2.55304e-05
2.57605e-05
2.57602e-05
2.55296e-05
2.50695e-05
2.43825e-05
2.34788e-05
2.23696e-05
2.10452e-05
1.95028e-05
1.77243e-05
1.56614e-05
1.34267e-05
1.10648e-05
8.70243e-06
6.10316e-06
3.57106e-06
3.36259e-06
5.71935e-06
8.24413e-06
1.05766e-05
1.29211e-05
1.51366e-05
1.71685e-05
1.8908e-05
2.04314e-05
2.17537e-05
2.28644e-05
2.37529e-05
2.44191e-05
2.48649e-05
2.5089e-05
2.50904e-05
2.48691e-05
2.44261e-05
2.37624e-05
2.2876e-05
2.17671e-05
2.04462e-05
1.89242e-05
1.71827e-05
1.51464e-05
1.29251e-05
1.05745e-05
8.23699e-06
5.70918e-06
3.35563e-06
4.87412e-06
2.50122e-06
1.06763e-05
1.59457e-05
2.10331e-05
2.55641e-05
2.9423e-05
3.24313e-05
3.47438e-05
3.64852e-05
3.77917e-05
3.87649e-05
3.94661e-05
3.99245e-05
4.01537e-05
4.01592e-05
3.99408e-05
3.94925e-05
3.87999e-05
3.78334e-05
3.65322e-05
3.47926e-05
3.24712e-05
2.94461e-05
2.55547e-05
2.10071e-05
1.59169e-05
1.06539e-05
2.47722e-06
4.86319e-06
8.28604e-06
1.29757e-05
1.72564e-05
2.10358e-05
2.40514e-05
2.71656e-05
3.0222e-05
3.31347e-05
3.59195e-05
3.83616e-05
4.04346e-05
4.21213e-05
4.33992e-05
4.42586e-05
4.46915e-05
4.46946e-05
4.42698e-05
4.34234e-05
4.21639e-05
4.05002e-05
3.84683e-05
3.60363e-05
3.32083e-05
3.02443e-05
2.71677e-05
2.40549e-05
2.1041e-05
1.72353e-05
1.28787e-05
8.27312e-06
1.10663e-05
1.81349e-05
2.32388e-05
2.48365e-05
2.86783e-05
3.47162e-05
4.14652e-05
4.78278e-05
5.33383e-05
5.79218e-05
6.17104e-05
6.48151e-05
6.72002e-05
6.88206e-05
6.96327e-05
6.96192e-05
6.87817e-05
6.71405e-05
6.47455e-05
6.16539e-05
5.78954e-05
5.33673e-05
4.78822e-05
4.1471e-05
3.46369e-05
2.86919e-05
2.48498e-05
2.32042e-05
1.80647e-05
1.10581e-05
1.38078e-05
2.2104e-05
2.63241e-05
2.95094e-05
3.83153e-05
5.07726e-05
6.24788e-05
7.21693e-05
8.01269e-05
8.67634e-05
9.22149e-05
9.66409e-05
0.000100063
0.000102527
0.000103782
0.000103755
0.000102448
9.99294e-05
9.64823e-05
9.21408e-05
8.67632e-05
8.02111e-05
7.23205e-05
6.2641e-05
5.0722e-05
3.81637e-05
2.95181e-05
2.63161e-05
2.20514e-05
1.38061e-05
1.64363e-05
2.5582e-05
2.85737e-05
3.59457e-05
5.11453e-05
6.93416e-05
8.70424e-05
0.000101849
0.000113627
0.000122741
0.000129791
0.000135195
0.00013917
0.000141781
0.000143062
0.000143049
0.000141736
0.000139064
0.000135089
0.000129749
0.000122795
0.000113792
0.000102125
8.74304e-05
6.9542e-05
5.1159e-05
3.59822e-05
2.85931e-05
2.55524e-05
1.644e-05
1.89075e-05
2.82458e-05
3.10233e-05
4.37285e-05
6.36388e-05
8.73906e-05
0.000110811
0.00012945
0.000143114
0.000153095
0.000160421
0.000165769
0.000169534
0.000171934
0.0001731
0.000173102
0.000171937
0.000169537
0.000165798
0.000160503
0.000153245
0.000143329
0.000129724
0.000111164
8.77169e-05
6.37769e-05
4.3776e-05
3.11361e-05
2.82631e-05
1.89135e-05
2.11881e-05
3.03511e-05
3.42857e-05
5.11244e-05
7.51121e-05
0.000103947
0.000130447
0.000150532
0.000164935
0.000175117
0.000182281
0.000187276
0.000190652
0.000192743
0.000193745
0.000193755
0.000192772
0.000190705
0.000187361
0.000182407
0.000175288
0.000165146
0.000150774
0.000130694
0.00010414
7.5189e-05
5.11372e-05
3.44174e-05
3.03789e-05
2.1195e-05
2.32216e-05
3.20209e-05
3.76453e-05
5.7452e-05
8.51755e-05
0.00011811
0.000145656
0.000166013
0.000180382
0.000190306
0.000197069
0.000201607
0.000204559
0.000206331
0.000207167
0.00020718
0.000206371
0.000204627
0.000201706
0.0001972
0.000190465
0.00018056
0.000166197
0.000145819
0.000118187
8.51427e-05
5.74376e-05
3.77626e-05
3.20496e-05
2.32274e-05
2.50103e-05
3.33794e-05
4.0927e-05
6.34169e-05
9.50475e-05
0.000129836
0.000157351
0.000177304
0.000191172
0.000200562
0.000206792
0.000210836
0.000213372
0.000214848
0.000215529
0.000215543
0.000214888
0.000213439
0.000210929
0.000206908
0.000200694
0.000191309
0.000177433
0.000157449
0.000129871
9.4992e-05
6.33923e-05
4.1013e-05
3.34068e-05
2.50145e-05
2.65355e-05
3.44894e-05
4.39211e-05
6.87073e-05
0.00010366
0.000139
0.000166158
0.00018545
0.000198629
0.00020738
0.00021304
0.000216602
0.00021876
0.000219974
0.000220522
0.000220534
0.000220009
0.000218817
0.000216679
0.000213132
0.000207478
0.000198724
0.000185527
0.000166202
0.000138991
0.000103592
6.86791e-05
4.39689e-05
3.45146e-05
2.65382e-05
2.77791e-05
3.53832e-05
4.64737e-05
7.31042e-05
0.000110568
0.000145992
0.000172625
0.000191214
0.000203698
0.000211825
0.000216958
0.000220093
0.000221929
0.000222927
0.000223366
0.000223375
0.000222954
0.000221972
0.000220149
0.000217022
0.000211889
0.000203752
0.000191247
0.000172626
0.000145954
0.0001105
7.30778e-05
4.64889e-05
3.54061e-05
2.77806e-05
2.87256e-05
3.60646e-05
4.84107e-05
7.63969e-05
0.000115687
0.000151045
0.000177168
0.000195138
0.000207026
0.00021463
0.000219329
0.000222123
0.000223708
0.000224542
0.000224899
0.000224905
0.000224562
0.000223739
0.000222161
0.000219368
0.000214664
0.000207047
0.000195138
0.00017714
0.000150992
0.000115631
7.63926e-05
4.84258e-05
3.60856e-05
2.87262e-05
2.93632e-05
3.65297e-05
4.97389e-05
7.85865e-05
0.000119052
0.000154323
0.000180062
0.00019758
0.000209038
0.000216269
0.000220663
0.000223221
0.000224636
0.00022536
0.000225661
0.000225666
0.000225373
0.000224656
0.000223245
0.000220684
0.000216282
0.000209036
0.000197558
0.000180017
0.000154265
0.000119006
7.85892e-05
4.97523e-05
3.65472e-05
2.93632e-05
2.96838e-05
3.67748e-05
5.04173e-05
7.96859e-05
0.000120718
0.000155934
0.00018147
0.000198752
0.000209986
0.000217024
0.000221261
0.0002237
0.000225028
0.000225697
0.000225971
0.000225974
0.000225706
0.000225043
0.000223715
0.000221272
0.000217026
0.000209973
0.00019872
0.000181419
0.000155874
0.000120677
7.96903e-05
5.04285e-05
3.6781e-05
2.96836e-05
2.96833e-05
3.67751e-05
5.04165e-05
7.96834e-05
0.000120713
0.00015593
0.000181467
0.000198752
0.000209987
0.000217025
0.000221263
0.000223701
0.00022503
0.000225698
0.000225972
0.000225975
0.000225707
0.000225043
0.000223715
0.000221273
0.000217026
0.000209973
0.00019872
0.000181417
0.000155871
0.000120671
7.96859e-05
5.04269e-05
3.67793e-05
2.96832e-05
2.93616e-05
3.65249e-05
4.97363e-05
7.85788e-05
0.000119036
0.000154311
0.000180055
0.000197579
0.00020904
0.000216273
0.000220668
0.000223226
0.00022464
0.000225362
0.000225663
0.000225667
0.000225374
0.000224657
0.000223245
0.000220685
0.000216282
0.000209036
0.000197557
0.000180013
0.000154254
0.000118989
7.85767e-05
4.97477e-05
3.65414e-05
2.93621e-05
2.8723e-05
3.60563e-05
4.84074e-05
7.63851e-05
0.00011566
0.000151027
0.00017716
0.000195138
0.000207031
0.000214637
0.000219337
0.00022213
0.000223713
0.000224545
0.0002249
0.000224905
0.000224561
0.000223738
0.00022216
0.000219368
0.000214664
0.000207046
0.000195135
0.000177133
0.000150978
0.000115606
7.63755e-05
4.84193e-05
3.60752e-05
2.87243e-05
2.77756e-05
3.53726e-05
4.64781e-05
7.30925e-05
0.000110536
0.000145973
0.000172619
0.000191217
0.000203706
0.000211836
0.000216968
0.0002201
0.000221932
0.000222927
0.000223363
0.000223371
0.000222949
0.000221968
0.000220146
0.000217019
0.000211886
0.000203749
0.000191243
0.000172619
0.000145939
0.000110474
7.30665e-05
4.6493e-05
3.53917e-05
2.77777e-05
2.65315e-05
3.44785e-05
4.39591e-05
6.87023e-05
0.000103626
0.000138983
0.000166157
0.000185459
0.000198643
0.000207393
0.000213051
0.000216608
0.00021876
0.000219969
0.000220513
0.000220523
0.000219998
0.000218806
0.00021667
0.000213124
0.000207471
0.000198718
0.000185522
0.000166195
0.000138978
0.00010357
6.86784e-05
4.40014e-05
3.44978e-05
2.65345e-05
2.50061e-05
3.33687e-05
4.09753e-05
6.34099e-05
9.50106e-05
0.000129825
0.000157359
0.000177321
0.00019119
0.000200578
0.000206801
0.000210836
0.000213365
0.000214834
0.000215512
0.000215523
0.000214868
0.000213421
0.000210913
0.000206895
0.000200683
0.0001913
0.000177425
0.000157442
0.000129856
9.49673e-05
6.33919e-05
4.10467e-05
3.33879e-05
2.501e-05
2.32175e-05
3.20113e-05
3.76975e-05
5.74418e-05
8.51375e-05
0.0001181
0.000145676
0.00016604
0.000180406
0.00019032
0.000197071
0.000201598
0.000204539
0.000206306
0.000207138
0.000207149
0.00020634