/*--------------------------------*- C++ -*----------------------------------*\
| =========                 |                                                 |
| \\      /  F ield         | OpenFOAM: The Open Source CFD Toolbox           |
|  \\    /   O peration     | Version:  2312                                  |
|   \\  /    A nd           | Website:  www.openfoam.com                      |
|    \\/     M anipulation  |                                                 |
\*---------------------------------------------------------------------------*/
FoamFile
{
    version     2.0;
    format      ascii;
    arch        "LSB;label=32;scalar=64";
    class       surfaceScalarField;
    location    "850";
    object      phi;
}
// * * * * * * * * * * * * * * * * * * * * * * * * * * * * * * * * * * * * * //

dimensions      [1 0 -1 0 0 0 0];

oriented        oriented;

internalField   nonuniform List<scalar> 
78300
(
-9.21481e-05
0.000310653
0.00754088
0.00271592
0.00127143
0.00975855
0.00271594
0.00463816
0.0149992
0.00305036
0.00518328
0.0196073
0.00331828
0.00581647
0.0241858
0.00348797
0.00635834
0.0285163
0.00354027
0.00683815
0.0325303
0.00346409
0.00723796
0.036213
0.00324999
0.00755774
0.0395409
0.00290974
0.0078061
0.0424644
0.00246475
0.00799442
0.0449454
0.00193732
0.00813393
0.0469574
0.00134918
0.00823276
0.0484814
0.00072142
0.00829578
0.0495043
7.42647e-05
0.00832647
0.0500176
-0.000572488
0.00832663
0.0500171
-0.00119893
0.00829617
0.0495026
-0.00178444
0.00823307
0.0484785
-0.00230733
0.00813371
0.0469531
-0.00274535
0.00799319
0.0449396
-0.00307593
0.0078036
0.0424572
-0.00327866
0.00755457
0.0395327
-0.00334427
0.00723608
0.0362043
-0.00328644
0.0068411
0.0325218
-0.00312273
0.00637123
0.0285094
-0.00287872
0.00584476
0.0241814
-0.00258547
0.00522574
0.019606
-0.00264311
0.00469456
0.0150004
0.000119853
0.00131336
0.00976173
0.000334389
0.00754485
0.00333175
0.00428632
0.00971428
0.00558985
0.00400807
0.0178949
0.00656801
0.0072397
0.0249084
0.00676318
0.0080596
0.0307142
0.00677214
0.0086019
0.0359586
0.00664746
0.00903414
0.040811
0.00640312
0.00939816
0.0452717
0.00602301
0.00970935
0.0493137
0.00549494
0.00996458
0.052915
0.00482265
0.0101629
0.05605
0.0040248
0.0103096
0.0586934
0.00312729
0.0104137
0.0608264
0.00215712
0.010484
0.062436
0.00113979
0.010527
0.0635134
9.95606e-05
0.0105476
0.064053
-0.000939853
0.0105481
0.0640518
-0.00195471
0.0105284
0.0635099
-0.00292072
0.010486
0.0624301
-0.00381262
0.0104163
0.060818
-0.00460397
0.0103128
0.0586825
-0.00527033
0.0101677
0.0560368
-0.00579587
0.00997343
0.0529004
-0.00618091
0.00972679
0.0492993
-0.00644217
0.00943032
0.0452594
-0.0065995
0.00908733
0.0408033
-0.00663945
0.00867945
0.0359582
-0.00650636
0.00815686
0.0307215
-0.00558213
0.00733757
0.0249208
-0.0033548
0.00406626
0.0179094
0.00428167
0.00971963
0.0068324
0.00382049
0.0199
0.00956412
0.00591248
0.0272906
0.0104204
0.00859761
0.035113
0.0101613
0.00938424
0.0413721
0.00955976
0.00974868
0.0466844
0.00887262
0.009989
0.0514085
0.0081477
0.0101891
0.0556867
0.00737505
0.0103738
0.0595443
0.00653458
0.0105399
0.0629708
0.00561467
0.0106785
0.0659475
0.00461616
0.010785
0.0684557
0.00354938
0.0108614
0.0704795
0.0024299
0.0109124
0.072007
0.00127516
0.0109433
0.0730293
0.000103249
0.0109582
0.073541
-0.0010677
0.0109595
0.0735393
-0.00221969
0.0109471
0.0730241
-0.00333504
0.0109189
0.0719984
-0.00439716
0.010871
0.0704678
-0.00539208
0.0107988
0.0684414
-0.00631193
0.0106988
0.0659319
-0.00715895
0.0105709
0.0629552
-0.00794809
0.0104209
0.059531
-0.008702
0.0102582
0.0556787
-0.00943087
0.0100841
0.0514084
-0.0100833
0.00986802
0.0466934
-0.0103929
0.00951617
0.0413879
-0.0095703
0.00871341
0.0351288
-0.00684568
0.00596587
0.0273026
0.00379852
0.0199041
0.00698128
0.00431009
0.0279014
0.0101649
0.00671922
0.0368398
0.0111283
0.00905352
0.0446185
0.0109642
0.00972855
0.0507859
0.0103168
0.0100194
0.0559642
0.00949577
0.0101713
0.0605149
0.00861052
0.0102799
0.0646023
0.00768844
0.0103817
0.0682748
0.00672845
0.0104816
0.0715328
0.00572358
0.0105725
0.0743624
0.00467041
0.0106475
0.0767472
0.00357169
0.0107037
0.0786727
0.00243538
0.0107423
0.0801268
0.00127295
0.0107662
0.0811004
9.751e-05
0.0107784
0.0815877
-0.00107712
0.0107808
0.0815858
-0.00223734
0.0107736
0.0810946
-0.00337072
0.0107553
0.0801174
-0.00446713
0.0107233
0.0786604
-0.00552051
0.0106757
0.0767331
-0.00653063
0.0106125
0.074348
-0.00750336
0.0105378
0.0715203
-0.00844755
0.0104591
0.0682667
-0.00936468
0.0103821
0.0646012
-0.0102254
0.0102984
0.0605225
-0.0109148
0.0101653
0.0559796
-0.0111136
0.00987747
0.0508037
-0.0101677
0.0091749
0.0446305
-0.00698597
0.006769
0.0368453
0.00428314
0.0279017
0.00790607
0.00455371
0.036069
0.0108629
0.00720756
0.0460369
0.011539
0.00914528
0.0537366
0.0112769
0.00966011
0.0595883
0.010602
0.00987687
0.0645328
0.0097433
0.00997489
0.0689073
0.008799
0.0100319
0.0728373
0.00780944
0.0100819
0.0763617
0.00678805
0.0101341
0.0794839
0.00573698
0.0101859
0.0821935
0.00465528
0.0102319
0.0844769
0.00354386
0.0102684
0.0863208
0.00240684
0.0102946
0.0877136
0.00125134
0.0103115
0.0886465
8.64564e-05
0.0103212
0.0891134
-0.00107784
0.010325
0.0891115
-0.00223188
0.0103232
0.0886407
-0.00336737
0.010315
0.0877046
-0.00447859
0.0102993
0.0863093
-0.00556324
0.0102756
0.0844643
-0.00662242
0.0102459
0.0821815
-0.00765858
0.0102144
0.0794746
-0.00867017
0.0101857
0.0763574
-0.0096427
0.0101602
0.0728394
-0.0105328
0.0101246
0.068916
-0.011237
0.010039
0.0645459
-0.0115201
0.00981782
0.0596005
-0.0108524
0.00927094
0.0537407
-0.007899
0.00726372
0.046034
0.00453756
0.0360652
0.00855154
0.00465553
0.0440353
0.0113262
0.00734677
0.0548538
0.0117824
0.00895605
0.0623476
0.0114149
0.00934172
0.0678879
0.0107062
0.00949064
0.0725993
0.00983117
0.00954534
0.0768019
0.00886645
0.00956605
0.0805891
0.0078498
0.0095802
0.0839856
0.0067999
0.00959681
0.0869918
0.00572486
0.00961615
0.0895989
0.00462762
0.00963555
0.0917948
0.00350982
0.00965235
0.0935676
0.00237439
0.00966524
0.0949066
0.001226
0.00967458
0.0958034
7.09629e-05
0.00968141
0.0962523
-0.00108372
0.00968673
0.0962504
-0.00223127
0.00969087
0.095798
-0.00336622
0.00969363
0.0948982
-0.0044851
0.0096947
0.0935572
-0.00558647
0.0096945
0.0917837
-0.00666995
0.00969475
0.0895888
-0.00773333
0.00969794
0.0869844
-0.00876815
0.00970534
0.0839823
-0.00975398
0.0097139
0.0805906
-0.0106501
0.00971069
0.0768075
-0.0113765
0.00966334
0.0726063
-0.0117548
0.00950615
0.067892
-0.0113029
0.00908955
0.0623441
-0.00853452
0.00741848
0.0548446
0.00466234
0.0440293
0.00903933
0.00460922
0.0516772
0.0116118
0.00721115
0.0631402
0.0119094
0.00853394
0.0703845
0.0114695
0.00882133
0.0756529
0.010737
0.00891602
0.0801572
0.00985549
0.00893649
0.0841992
0.00888599
0.0089298
0.0878529
0.00786123
0.00891752
0.0911325
0.0068003
0.00890732
0.0940346
0.00571388
0.00890092
0.0965502
0.00460758
0.00889773
0.0986681
0.00348479
0.00889652
0.100377
0.00234854
0.00889664
0.101668
0.00120262
0.00889828
0.102533
5.17547e-05
0.00890213
0.102965
-0.00109886
0.00890894
0.102964
-0.00224429
0.0089191
0.102528
-0.00338047
0.00893266
0.101661
-0.00450454
0.00894961
0.100368
-0.00561445
0.00897025
0.0986582
-0.00670761
0.0089953
0.0965411
-0.00777841
0.00902516
0.0940278
-0.00881543
0.00905868
0.0911287
-0.00979801
0.00909142
0.0878522
-0.0106912
0.00911222
0.0842005
-0.011432
0.00909607
0.0801581
-0.011876
0.00899243
0.0756504
-0.0115812
0.0086781
0.0703766
-0.00901865
0.00730361
0.0631294
0.00464376
0.0516701
0.00939848
0.00441702
0.0588511
0.0117906
0.00683474
0.0707905
0.0119679
0.00791195
0.0777833
0.0114796
0.00812334
0.0828153
0.0107333
0.00817751
0.0871384
0.0098516
0.00817271
0.0910347
0.00888491
0.00814663
0.0945647
0.00786141
0.00811569
0.0977363
0.00679884
0.00808632
0.100544
0.00570838
0.0080609
0.102977
0.00459714
0.00804018
0.105025
0.0034698
0.00802434
0.106677
0.00233019
0.00801359
0.107925
0.00118217
0.00800845
0.108761
2.99375e-05
0.00800962
0.109179
-0.00112204
0.00801777
0.109177
-0.00226951
0.00803328
0.108756
-0.0034087
0.00805621
0.107918
-0.00453642
0.00808641
0.106669
-0.00564948
0.0081236
0.105016
-0.00674343
0.00816722
0.102968
-0.00781102
0.00821606
0.100537
-0.00884035
0.0082675
0.0977315
-0.0098125
0.00831669
0.0945617
-0.0106981
0.00835459
0.0910325
-0.0114462
0.00836242
0.0871353
-0.0119347
0.0083005
0.0828095
-0.0117598
0.00806744
0.0777744
-0.00937924
0.00694814
0.0707811
0.00447663
0.0588453
0.00967324
0.00408029
0.0654157
0.0119049
0.00624978
0.077712
0.0119876
0.00711562
0.0844694
0.0114647
0.00726767
0.089297
0.0107103
0.00729271
0.0934625
0.00983169
0.0072708
0.0972286
0.00887169
0.00723248
0.100647
0.00785445
0.0071899
0.10372
0.0067956
0.00714836
0.106442
0.0057058
0.00711049
0.108801
0.00459253
0.0070779
0.110787
0.0034614
0.00705177
0.11239
0.00231711
0.00703311
0.1136
0.00116407
0.00702293
0.11441
6.8276e-06
0.0070221
0.114815
-0.00115002
0.00703128
0.114814
-0.002302
0.00705083
0.114406
-0.0034449
0.00708066
0.113593
-0.00457467
0.00712026
0.112382
-0.00568697
0.00716867
0.110779
-0.00677631
0.00722432
0.108793
-0.007835
0.00728487
0.106435
-0.00885195
0.00734699
0.103715
-0.009811
0.00740603
0.100642
-0.0106877
0.00745479
0.0972246
-0.0114394
0.00747963
0.0934577
-0.0119601
0.00744889
0.0892908
-0.0118793
0.00728019
0.0844621
-0.0096581
0.00637999
0.0777057
0.00415856
0.0654121
0.00988078
0.00361235
0.0712527
0.0119756
0.00548453
0.0838177
0.0119848
0.00616656
0.0903653
0.0114357
0.00627262
0.09502
0.0106763
0.00627778
0.09905
0.00980203
0.00624609
0.102702
0.00885041
0.0062016
0.106021
0.00784185
0.00615359
0.109008
0.00678961
0.00610627
0.111654
0.00570323
0.00606221
0.113949
0.00459003
0.00602343
0.115881
0.0034561
0.00599173
0.11744
0.00230689
0.00596869
0.118617
0.00114768
0.00595566
0.119405
-1.62129e-05
0.00595369
0.119799
-0.00117947
0.00596351
0.119798
-0.00233683
0.00598536
0.119401
-0.00348319
0.006019
0.118611
-0.00461352
0.00606357
0.117433
-0.00572257
0.00611757
0.115874
-0.00680436
0.0061788
0.113942
-0.00785153
0.00624435
0.111648
-0.00885449
0.00631073
0.109002
-0.0098
0.00637378
0.106016
-0.0106679
0.00642794
0.102698
-0.0114214
0.00646303
0.0990458
-0.0119664
0.00645429
0.0950154
-0.0119577
0.0063357
0.0903612
-0.00987056
0.0056249
0.0838152
0.00370193
0.0712516
0.0100345
0.00303071
0.076266
0.012016
0.00456752
0.0890299
0.0119684
0.00508672
0.0953989
0.0113999
0.0051569
0.0999109
0.0106377
0.00514941
0.103828
0.00976838
0.00511416
0.107384
0.00882534
0.00506903
0.110618
0.00782594
0.00502105
0.11353
0.00678127
0.00497357
0.116112
0.00569955
0.00492894
0.118352
0.00458762
0.00488928
0.120238
0.00345177
0.0048566
0.12176
0.0022981
0.0048327
0.122909
0.00113276
0.0048191
0.123679
-3.79808e-05
0.00481694
0.124064
-0.00120776
0.00482691
0.124063
-0.00237031
0.0048492
0.123675
-0.00351948
0.00488341
0.122904
-0.00464931
0.00492849
0.121754
-0.0057539
0.00498269
0.120231
-0.00682717
0.00504357
0.118346
-0.00786248
0.00510818
0.116106
-0.00885186
0.00517317
0.113525
-0.00978466
0.00523501
0.110614
-0.0106441
0.00528937
0.10738
-0.0113978
0.00532863
0.103825
-0.0119602
0.00533432
0.099909
-0.012006
0.00525463
0.0953984
-0.0100287
0.00471073
0.0890313
0.00312493
0.0762671
0.0101451
0.00235597
0.0803744
0.0120365
0.00352781
0.0932823
0.0119466
0.00389937
0.0995063
0.011364
0.00394127
0.103905
0.0106002
0.00392697
0.107731
0.00973568
0.00389287
0.111208
0.00880054
0.00385164
0.114374
0.00780961
0.00380828
0.117226
0.00677213
0.00376541
0.119755
0.0056951
0.00372504
0.12195
0.00458486
0.00368911
0.123798
0.0034477
0.0036595
0.12529
0.00229023
0.00363794
0.126417
0.00111942
0.00362588
0.127172
-5.74997e-05
0.00362435
0.127549
-0.00123315
0.003634
0.127549
-0.00240019
0.00365493
0.127169
-0.00355151
0.0036867
0.126413
-0.00468035
0.00372826
0.125285
-0.00578037
0.00377789
0.123793
-0.00684557
0.00383333
0.121944
-0.00787007
0.00389188
0.11975
-0.00884739
0.00395068
0.117222
-0.00976897
0.0040068
0.114371
-0.0106207
0.00405691
0.111207
-0.0113736
0.00409552
0.107731
-0.0119479
0.00410941
0.103906
-0.0120336
0.00406022
0.0995091
-0.0101429
0.00366722
0.0932869
0.00244956
0.0803772
0.0102212
0.00161037
0.0835127
0.0120454
0.00239529
0.0965205
0.0119254
0.00262973
0.102634
0.0113333
0.00264885
0.106948
0.0105687
0.00263196
0.110706
0.00970837
0.00260253
0.114124
0.0087797
0.00256861
0.117237
0.00779569
0.00253346
0.120043
0.00676409
0.00249897
0.122532
0.00569096
0.0024667
0.124693
0.00458214
0.00243819
0.126513
0.00344395
0.00241494
0.127982
0.00228336
0.00239833
0.129092
0.00110799
0.00238951
0.129835
-7.40981e-05
0.0023893
0.130208
-0.00125461
0.00239818
0.130207
-0.00242532
0.00241622
0.129833
-0.00357829
0.00244304
0.129088
-0.00470616
0.00247775
0.127978
-0.00580229
0.00251896
0.126508
-0.00686083
0.00256484
0.124688
-0.00787653
0.00261328
0.122529
-0.00884404
0.00266203
0.12004
-0.00975643
0.00270883
0.117236
-0.0106016
0.00275124
0.114124
-0.0113529
0.00278556
0.110708
-0.0119347
0.00280309
0.106952
-0.0120479
0.00277847
0.10264
-0.0102216
0.00252569
0.0965273
0.00169955
0.0835167
0.010269
0.000816973
0.085632
0.0120484
0.00120056
0.0987026
0.0119094
0.00130451
0.104742
0.0113115
0.00130448
0.108999
0.010547
0.00128779
0.112712
0.00968969
0.00126539
0.11609
0.00876559
0.00124113
0.119168
0.00778635
0.00121671
0.121943
0.00675874
0.00119328
0.124405
0.00568815
0.00117184
0.126543
0.00458008
0.00115339
0.128344
0.00344084
0.00113884
0.129798
0.0022777
0.00112903
0.130896
0.00109874
0.00112466
0.131632
-8.73656e-05
0.00112621
0.132
-0.00127165
0.00113397
0.132
-0.00244521
0.00114799
0.13163
-0.00359955
0.00116799
0.130893
-0.00472685
0.00119344
0.129794
-0.0058203
0.00122344
0.12834
-0.00687415
0.00125683
0.126539
-0.0078836
0.00129223
0.124402
-0.00884409
0.00132815
0.121941
-0.00974976
0.00136308
0.119168
-0.0105898
0.0013954
0.116092
-0.0113392
0.00142295
0.112715
-0.0119247
0.0014412
0.109005
-0.012055
0.00143739
0.104749
-0.0102711
0.00131829
0.0987108
0.000899375
0.0856367
0.0102923
-6.33602e-07
0.0866996
0.0120496
-2.53535e-05
0.0998005
0.0119016
-4.8573e-05
0.105803
0.0113013
-6.58774e-05
0.110031
0.0105371
-8.08785e-05
0.113721
0.0096815
-9.49234e-05
0.11708
0.00875975
-0.000108202
0.120139
0.00778281
-0.000120459
0.122899
0.00675696
-0.000131305
0.125348
0.00568723
-0.000140354
0.127474
0.00457899
-0.000147279
0.129265
0.00343856
-0.000151828
0.130712
0.00227337
-0.000153814
0.131804
0.0010918
-0.000153094
0.132536
-9.71274e-05
-0.000149568
0.132902
-0.00128406
-0.00014317
0.132902
-0.0024597
-0.000133884
0.132534
-0.00361523
-0.000121772
0.131801
-0.00474259
-0.000106985
0.130708
-0.00583484
-8.97943e-05
0.129262
-0.0068863
-7.05918e-05
0.127471
-0.00789237
-4.99083e-05
0.125345
-0.00884891
-2.84025e-05
0.122898
-0.00975059
-6.82496e-06
0.12014
-0.0105873
1.40441e-05
0.117082
-0.0113347
3.34934e-05
0.113725
-0.0119211
5.09767e-05
0.110037
-0.0120588
6.61436e-05
0.10581
-0.0102954
7.76219e-05
0.0998092
7.3776e-05
0.0867045
0.0102929
-0.000818572
0.0866994
0.0120508
-0.00125116
0.0997999
0.0119034
-0.00140133
0.105802
0.0113036
-0.00143567
0.11003
0.0105398
-0.00144873
0.11372
0.00968445
-0.00145412
0.117078
0.00876265
-0.00145608
0.120138
0.00778539
-0.00145583
0.122897
0.00675891
-0.00145374
0.125346
0.00568826
-0.00145009
0.127472
0.00457883
-0.00144521
0.129264
0.00343702
-0.00143955
0.13071
0.0022703
-0.00143358
0.131802
0.00108713
-0.00142773
0.132534
-0.000103375
-0.00142227
0.132901
-0.00129178
-0.00141736
0.1329
-0.00246872
-0.001413
0.132532
-0.0036253
-0.00140904
0.1318
-0.0047534
-0.00140523
0.130707
-0.00584605
-0.00140121
0.12926
-0.00689752
-0.00139658
0.127469
-0.00790323
-0.001391
0.125344
-0.00885904
-0.0013843
0.122896
-0.00975964
-0.00137643
0.120138
-0.010595
-0.00136733
0.11708
-0.0113409
-0.00135624
0.113724
-0.0119255
-0.0013397
0.110036
-0.0120614
-0.00130567
0.105809
-0.0102965
-0.00116366
0.0998082
-0.000752453
0.0867041
0.0102707
-0.00161289
0.0856312
0.0120517
-0.00244551
0.0987006
0.0119145
-0.00272548
0.104739
0.0113182
-0.00277832
0.108996
0.0105548
-0.0027904
0.112708
0.00969812
-0.00278788
0.116086
0.00877386
-0.00277921
0.119164
0.00779361
-0.0027672
0.121938
0.0067641
-0.00275304
0.124401
0.00569075
-0.0027376
0.126538
0.00457918
-0.00272187
0.128339
0.00343583
-0.00270691
0.129793
0.00226818
-0.00269377
0.130892
0.00108452
-0.00268333
0.131627
-0.000106221
-0.00267623
0.131996
-0.00129484
-0.00267281
0.131995
-0.00247221
-0.00267307
0.131625
-0.00362961
-0.00267671
0.130889
-0.00475909
-0.00268311
0.12979
-0.00585369
-0.00269135
0.128336
-0.00690759
-0.00270035
0.126535
-0.00791596
-0.00270897
0.124398
-0.00887429
-0.00271624
0.121937
-0.00977677
-0.00272132
0.119164
-0.0106128
-0.00272327
0.116088
-0.0113575
-0.00271969
0.112711
-0.0119379
-0.00270298
0.109001
-0.012063
-0.00264845
0.104746
-0.0102745
-0.00237292
0.098708
-0.0015547
0.0856354
0.0102238
-0.00235973
0.0835114
0.0120504
-0.00357717
0.0965171
0.0119332
-0.00399315
0.10263
0.0113434
-0.0040677
0.106943
0.0105806
-0.00408116
0.1107
0.00972109
-0.00407257
0.114118
0.00879201
-0.00405502
0.11723
0.00780622
-0.00403315
0.120036
0.00677145
-0.00400897
0.122525
0.00569379
-0.00398394
0.124685
0.00457926
-0.00395951
0.126506
0.00343442
-0.00393723
0.127975
0.00226656
-0.00391854
0.129084
0.00108366
-0.00390467
0.129828
-0.000105847
-0.00389647
0.1302
-0.00129329
-0.00389441
0.130199
-0.00247007
-0.00389853
0.129826
-0.00362795
-0.0039084
0.129081
-0.00475927
-0.00392319
0.127971
-0.00585721
-0.00394158
0.126502
-0.00691579
-0.00396198
0.124682
-0.00792971
-0.00398262
0.122522
-0.0088937
-0.0040018
0.120034
-0.00980094
-0.00401797
0.117229
-0.0106396
-0.00402917
0.114118
-0.0113833
-0.00403116
0.110702
-0.0119567
-0.00401172
0.106946
-0.0120615
-0.0039332
0.102634
-0.0102274
-0.0035178
0.0965228
-0.00230847
0.0835147
0.0101482
-0.00303564
0.0803725
0.0120426
-0.00461516
0.0932775
0.011956
-0.00517733
0.0994998
0.0113764
-0.00527881
0.103897
0.0106146
-0.00529753
0.107723
0.00975084
-0.00528593
0.1112
0.00881482
-0.00526241
0.114364
0.00782124
-0.00523374
0.117216
0.00677927
-0.00520279
0.119745
0.00569605
-0.00517152
0.12194
0.00457809
-0.00514169
0.123788
0.00343206
-0.00511509
0.12528
0.00226495
-0.00509331
0.126407
0.0010842
-0.00507768
0.127161
-0.000102493
-0.00506914
0.127539
-0.00128724
-0.00506822
0.127539
-0.00246225
-0.00507499
0.127159
-0.00361998
-0.00508902
0.126403
-0.00475332
-0.0051094
0.125276
-0.00585565
-0.00513469
0.123783
-0.00692083
-0.00516304
0.121935
-0.00794291
-0.0051923
0.119741
-0.00891546
-0.00522023
0.117213
-0.0098301
-0.00524453
0.114362
-0.010673
-0.00526214
0.111199
-0.0114156
-0.00526655
0.107723
-0.0119787
-0.00524023
0.103898
-0.0120528
-0.00513211
0.099502
-0.0101512
-0.00456639
0.093281
-0.00298947
0.0803746
0.0100376
-0.00361788
0.0762635
0.0120223
-0.00552915
0.0890237
0.0119782
-0.00625252
0.0953908
0.0114129
-0.00638842
0.0999016
0.0106526
-0.00641797
0.103818
0.00978367
-0.00640774
0.107373
0.00883904
-0.00638237
0.110607
0.00783594
-0.00635104
0.113519
0.00678548
-0.00631769
0.1161
0.005696
-0.00628462
0.11834
0.00457468
-0.00625375
0.120225
0.00342814
-0.00622669
0.121747
0.00226297
-0.00620493
0.122896
0.00108584
-0.00618963
0.123666
-9.64176e-05
-0.00618169
0.124051
-0.00127692
-0.00618161
0.12405
-0.00244884
-0.00618951
0.123663
-0.00360553
-0.00620505
0.122892
-0.00474059
-0.00622745
0.121742
-0.00584782
-0.0062554
0.12022
-0.00692092
-0.00628716
0.118334
-0.00795319
-0.00632056
0.116095
-0.00893673
-0.00635301
0.113515
-0.00986108
-0.0063815
0.110603
-0.0107098
-0.00640162
0.107371
-0.0114509
-0.00640414
0.103816
-0.0119994
-0.00636518
0.0999001
-0.0120307
-0.0062194
0.0953901
-0.0100394
-0.00548767
0.0890244
-0.00357403
0.076264
0.00988351
-0.00408531
0.0712495
0.0119812
-0.00628974
0.0838102
0.0119937
-0.00719536
0.0903557
0.0114477
-0.00737581
0.0950094
0.0106898
-0.00742325
0.0990389
0.00981506
-0.0074203
0.102691
0.00886081
-0.00739828
0.106009
0.00784732
-0.00736942
0.108995
0.00678796
-0.00733899
0.111641
0.00569247
-0.00730957
0.113935
0.00456853
-0.00728279
0.115866
0.00342263
-0.00725981
0.117425
0.0022607
-0.00724159
0.118602
0.00108856
-0.00722895
0.11939
-8.79299e-05
-0.00722262
0.119785
-0.00126287
-0.00722305
0.119783
-0.00243042
-0.00723041
0.119387
-0.00358492
-0.00724449
0.118597
-0.00472088
-0.00726478
0.117419
-0.00583266
-0.0072904
0.11586
-0.00691406
-0.00732013
0.113929
-0.00795764
-0.00735216
0.111635
-0.00895388
-0.007384
0.10899
-0.00988973
-0.00741196
0.106005
-0.0107454
-0.00742984
0.102687
-0.0114845
-0.00742487
0.0990355
-0.0120133
-0.00736617
0.0950058
-0.0119875
-0.007172
0.0903522
-0.00988355
-0.00625216
0.0838078
-0.00404022
0.0712482
0.00967504
-0.00441994
0.0654117
0.0119091
-0.00686853
0.0777035
0.0119949
-0.00798418
0.0844587
0.0114744
-0.00822253
0.0892857
0.0107205
-0.00829692
0.0934508
0.00984024
-0.00830833
0.0972164
0.00887617
-0.00829543
0.100634
0.0078526
-0.00827506
0.103706
0.00678533
-0.00825379
0.106427
0.00568531
-0.00823422
0.108786
0.0045604
-0.00821725
0.110771
0.00341663
-0.00820314
0.112373
0.0022591
-0.00819205
0.113583
0.00109274
-0.00818436
0.114393
-7.74079e-05
-0.0081806
0.114799
-0.00124619
-0.0081812
0.114797
-0.00240856
-0.00818639
0.114389
-0.00355973
-0.00819608
0.113578
-0.00469514
-0.00821003
0.112367
-0.00581005
-0.00822796
0.110764
-0.00689871
-0.0082495
0.108779
-0.00795332
-0.00827384
0.106421
-0.00896287
-0.00829898
0.103702
-0.00991141
-0.00832094
0.10063
-0.0107748
-0.0083315
0.0972131
-0.0115108
-0.00831268
0.0934471
-0.0120139
-0.00822549
0.0892808
-0.0119139
-0.00796919
0.0844529
-0.00967338
-0.00683209
0.0776981
-0.00437002
0.0654086
0.00939914
-0.0046084
0.0588467
0.0117933
-0.00723791
0.0707814
0.0119732
-0.00859793
0.0777724
0.0114863
-0.00891069
0.0828042
0.0107389
-0.00902313
0.0871272
0.00985372
-0.00905676
0.0910228
0.0088812
-0.00905997
0.0945519
0.00784982
-0.00905497
0.0977223
0.00677764
-0.00904991
0.100528
0.00567619
-0.0090469
0.10296
0.00455294
-0.0090456
0.105008
0.00341292
-0.0090449
0.10666
0.00226032
-0.0090441
0.107907
0.00109935
-0.0090432
0.108743
-6.53483e-05
-0.00904273
0.109161
-0.00122881
-0.00904326
0.10916
-0.00238624
-0.00904497
0.108739
-0.00353334
-0.00904781
0.107901
-0.00466639
-0.00905161
0.106653
-0.00578174
-0.00905663
0.105
-0.00687466
-0.00906359
0.102953
-0.00793778
-0.00907315
0.100522
-0.00895923
-0.00908461
0.0977181
-0.00992036
-0.00909417
0.0945492
-0.0107921
-0.00909146
0.0910209
-0.0115238
-0.00905209
0.0871247
-0.0119937
-0.00892625
0.0827997
-0.0117984
-0.00859136
0.0777655
-0.00939651
-0.00720162
0.0707738
-0.00455103
0.0588419
0.00903918
-0.00464995
0.0516725
0.0116138
-0.00736676
0.0631313
0.0119132
-0.00901174
0.0703744
0.0114728
-0.0094207
0.075643
0.010737
-0.00958457
0.0801473
0.00984961
-0.00964909
0.0841885
0.00887222
-0.00967626
0.0878408
0.00783804
-0.0096945
0.0911187
0.00676657
-0.00971351
0.0940192
0.00566882
-0.00973408
0.0965335
0.00455073
-0.0097539
0.0986504
0.00341591
-0.00977033
0.100359
0.00226759
-0.00978194
0.10165
0.00110983
-0.00978893
0.102514
-5.23446e-05
-0.00979212
0.102947
-0.00121336
-0.00979235
0.102945
-0.0023678
-0.00978985
0.10251
-0.00351108
-0.00978428
0.101643
-0.00463986
-0.00977519
0.100351
-0.00575162
-0.00976291
0.0986421
-0.00684339
-0.00974906
0.0965258
-0.00790942
-0.00973621
0.0940133
-0.00893834
-0.00972584
0.0911152
-0.00990963
-0.00971545
0.0878398
-0.0107887
-0.00969262
0.0841891
-0.0115129
-0.00962572
0.0801478
-0.011938
-0.0094496
0.0756411
-0.0116222
-0.00901555
0.0703683
-0.009037
-0.00733234
0.0631226
-0.00458466
0.0516668
0.00855173
-0.0045444
0.0440314
0.0113286
-0.00722197
0.0548461
0.0117851
-0.00919302
0.0623393
0.0114146
-0.00972862
0.0678805
0.0106996
-0.00995688
0.0725917
0.00981607
-0.0100611
0.0767929
0.00884137
-0.0101211
0.0805781
0.00781394
-0.0101723
0.0839724
0.00675293
-0.0102246
0.0869767
0.00566681
-0.010276
0.0895822
0.0045586
-0.0103215
0.091777
0.00343005
-0.0103572
0.0935491
0.00228413
-0.010382
0.0948878
0.00112559
-0.0103969
0.0957846
-3.90622e-05
-0.0104037
0.0962337
-0.00120253
-0.0104035
0.0962321
-0.00235765
-0.0103967
0.0957801
-0.00349855
-0.0103823
0.0948808
-0.00462126
-0.0103592
0.0935404
-0.0057239
-0.0103268
0.0917677
-0.00680568
-0.0102867
0.0895735
-0.00786419
-0.0102432
0.0869701
-0.00889088
-0.010201
0.0839691
-0.00986556
-0.0101607
0.0805785
-0.0107477
-0.0101096
0.0767965
-0.0114576
-0.0100081
0.0725966
-0.0118172
-0.00977137
0.0678834
-0.0113443
-0.00921034
0.0623365
-0.00855299
-0.00719453
0.0548386
-0.00447548
0.0440265
0.0079076
-0.00429959
0.0360662
0.0108657
-0.00673018
0.0460321
0.0115406
-0.00909461
0.0537312
0.0112725
-0.00978656
0.0595838
0.0105881
-0.0100847
0.0645275
0.0097181
-0.0102388
0.0688999
0.00876192
-0.0103472
0.0728273
0.0077607
-0.0104478
0.0763491
0.00672832
-0.0105462
0.079469
0.00566701
-0.010636
0.082177
0.00457582
-0.0107101
0.0844595
0.00345548
-0.0107655
0.0863028
0.00230997
-0.010803
0.0876954
0.00114641
-0.0108253
0.0886283
-2.60241e-05
-0.0108353
0.0890954
-0.00119715
-0.0108348
0.0890938
-0.00235703
-0.010824
0.0886235
-0.00349699
-0.0108014
0.0876878
-0.00461097
-0.0107643
0.0862932
-0.00569622
-0.0107108
0.0844489
-0.00675344
-0.0106407
0.0821669
-0.00778478
-0.0105578
0.079461
-0.00878854
-0.0104697
0.0763448
-0.00975036
-0.0103818
0.0728279
-0.010627
-0.0102865
0.0689057
-0.0113153
-0.0101412
0.0645368
-0.0115802
-0.00984135
0.0595927
-0.0108921
-0.00912805
0.053734
-0.00791684
-0.00671717
0.0460295
-0.00423674
0.0360631
0.00698429
-0.0038119
0.0279003
0.0101686
-0.00592286
0.0368385
0.0111286
-0.0086327
0.0446159
0.0109547
-0.0094302
0.0507837
0.0102944
-0.00979737
0.0559605
0.00945961
-0.0100363
0.0605084
0.00856142
-0.0102338
0.0645926
0.00762776
-0.0104159
0.0682625
0.0066578
-0.0105802
0.0715184
0.00564438
-0.0107176
0.0743466
0.00458375
-0.0108236
0.0767306
0.00347827
-0.0108995
0.0786557
0.00233572
-0.0109498
0.0801098
0.00116744
-0.0109797
0.0810836
-1.33951e-05
-0.0109931
0.0815711
-0.00119277
-0.0109924
0.0815695
-0.00235693
-0.0109777
0.0810787
-0.00349318
-0.0109467
0.080102
-0.00459113
-0.0108957
0.0786456
-0.00564438
-0.0108199
0.0767189
-0.00665233
-0.0107158
0.0743347
-0.00762047
-0.0105831
0.0715079
-0.00855749
-0.0104273
0.0682553
-0.00946462
-0.0102576
0.0645908
-0.0103128
-0.0100754
0.0605132
-0.0109872
-0.00985075
0.0559715
-0.0111689
-0.0094901
0.0507966
-0.0102034
-0.00868041
0.0446246
-0.00700154
-0.00593093
0.0368421
-0.00376621
0.0279002
0.00683729
-0.00428316
0.0199006
0.00956844
-0.00401885
0.0272916
0.010417
-0.00726656
0.0351125
0.0101439
-0.00809001
0.0413705
0.00952679
-0.00863104
0.0466804
0.00882511
-0.00905991
0.0514015
0.00808792
-0.00942089
0.055677
0.00730554
-0.0097299
0.0595324
0.00645744
-0.00998397
0.0629575
0.0055315
-0.0101819
0.0659334
0.00452791
-0.0103286
0.0684411
0.00345668
-0.0104327
0.0704649
0.0023331
-0.0105028
0.0719924
0.0011746
-0.0105453
0.073015
-6.1926e-07
-0.0105651
0.0735269
-0.00117436
-0.0105644
0.0735254
-0.00232839
-0.0105434
0.0730105
-0.00344496
-0.0104994
0.0719852
-0.00450731
-0.010428
0.0704551
-0.00550133
-0.0103227
0.0684294
-0.00641881
-0.0101757
0.0659205
-0.00726163
-0.00997935
0.0629447
-0.00804439
-0.0097299
0.0595215
-0.00878957
-0.00942979
0.05567
-0.00950737
-0.00908212
0.0514007
-0.0101464
-0.00866897
0.0466868
-0.0104401
-0.00814103
0.0413822
-0.00959952
-0.00731812
0.0351243
-0.00686011
-0.00404386
0.0273003
-0.00426283
0.0199031
0.00333695
-0.000313605
0.00971519
0.00559055
-0.0012794
0.0178966
0.0065561
-0.00465293
0.0249089
0.00673475
-0.0051958
0.0307128
0.00672921
-0.0058271
0.0359546
0.006593
-0.00636597
0.0408044
0.00634004
-0.00684392
0.0452633
0.00595418
-0.00724337
0.0493043
0.00542211
-0.00756312
0.052905
0.00474668
-0.00781174
0.0560397
0.00394605
-0.00800037
0.0586832
0.00304606
-0.00814026
0.0608162
0.00207364
-0.0082392
0.0624259
0.0010543
-0.00830206
0.0635034
1.24486e-05
-0.00833241
0.0640431
-0.001028
-0.00833212
0.0640421
-0.00204323
-0.00830113
0.0635003
-0.00300886
-0.00823746
0.0624207
-0.0038997
-0.00813744
0.060809
-0.0046894
-0.00799618
0.0586739
-0.00535322
-0.00780615
0.0560287
-0.00587512
-0.00755674
0.052893
-0.00625495
-0.00723772
0.0492927
-0.00650939
-0.00684142
0.0452534
-0.00665806
-0.00636959
0.0407982
-0.00668708
-0.0058412
0.0359542
-0.00654046
-0.00522041
0.0307185
-0.00560518
-0.00468394
0.0249186
-0.00335888
-0.00130833
0.0179078
-0.000319022
0.00971902
-9.5225e-05
0.00754101
0.00270493
0.0097585
0.00269103
0.0149983
0.00301462
0.0196056
0.00327472
0.024183
0.00344064
0.0285125
0.0034919
0.0325255
0.0034155
0.0362078
0.00320126
0.0395356
0.00286045
0.0424593
0.00241437
0.0449405
0.00188539
0.0469527
0.00129551
0.0484767
0.000666066
0.0494997
1.74819e-05
0.0500131
-0.000630331
0.0500126
-0.00125737
0.0494982
-0.00184302
0.0484742
-0.00236559
0.0469491
-0.00280275
0.0449358
-0.00313217
0.0424535
-0.00333341
0.039529
-0.00339716
0.0362008
-0.00333661
0.0325187
-0.0031688
0.0285069
-0.00291931
0.0241795
-0.00261928
0.0196045
-0.00266513
0.0149993
0.000103616
0.00976098
0.00754398
0.00083588
0.000348265
0.00635674
0.00142737
0.000640336
0.00852673
0.00149799
0.00155964
0.0133689
0.00160836
0.00196792
0.017529
0.00163805
0.00254063
0.0216155
0.00161315
0.00308538
0.0254558
0.00153875
0.0035924
0.0290123
0.00142757
0.00404565
0.0322786
0.00128796
0.00444387
0.0352366
0.00112456
0.00478873
0.037839
0.000938654
0.00508125
0.04005
0.000730207
0.00532117
0.0418447
0.000500493
0.0055064
0.0432047
0.000253366
0.00563335
0.0441181
-4.91261e-06
0.00569871
0.0445772
-0.000266796
0.00570078
0.0445782
-0.000525086
0.00563989
0.044121
-0.000774482
0.00551836
0.0432095
-0.00101255
0.00533994
0.0418513
-0.00123946
0.00510837
0.0400582
-0.00145592
0.00482518
0.0378485
-0.00165874
0.00448856
0.035247
-0.00183659
0.00409335
0.0322888
-0.00196776
0.00363152
0.0290214
-0.00202145
0.00310003
0.0254631
-0.00197285
0.0025125
0.0216203
-0.00178498
0.00188652
0.0175316
-0.00159257
0.00143808
0.0133699
-0.000884627
0.00052806
0.00852573
0.000305779
0.00635445
0.000776166
0.000896762
0.00838962
0.00210367
0.00137651
0.0158312