/*--------------------------------*- C++ -*----------------------------------*\
| =========                 |                                                 |
| \\      /  F ield         | OpenFOAM: The Open Source CFD Toolbox           |
|  \\    /   O peration     | Version:  2312                                  |
|   \\  /    A nd           | Website:  www.openfoam.com                      |
|    \\/     M anipulation  |                                                 |
\*---------------------------------------------------------------------------*/
FoamFile
{
    version     2.0;
    format      ascii;
    arch        "LSB;label=32;scalar=64";
    class       volScalarField;
    location    "850";
    object      T;
}
// * * * * * * * * * * * * * * * * * * * * * * * * * * * * * * * * * * * * * //

dimensions      [0 0 0 1 0 0 0];

internalField   nonuniform List<scalar> 
27000
(
428.471
356.776
347.956
343.666
342.92
342.994
343.207
343.447
343.686
343.893
344.059
344.189
344.285
344.349
344.381
344.38
344.346
344.281
344.182
344.051
343.883
343.674
343.431
343.184
342.96
342.868
343.585
347.834
356.609
428.184
336.257
355.458
349.349
347.64
347.289
347.452
347.68
347.874
348.03
348.151
348.243
348.31
348.356
348.386
348.4
348.398
348.381
348.348
348.298
348.227
348.131
348.003
347.839
347.631
347.383
347.196
347.523
349.222
355.358
336.305
342.832
346.307
349.053
348.861
348.697
348.702
348.778
348.856
348.918
348.966
349.001
349.025
349.041
349.05
349.053
349.051
349.044
349.03
349.009
348.979
348.937
348.881
348.807
348.715
348.626
348.61
348.776
348.992
346.303
342.862
342.749
346.779
348.547
348.935
348.97
348.981
349.014
349.057
349.096
349.126
349.148
349.164
349.173
349.178
349.179
349.177
349.171
349.161
349.145
349.123
349.094
349.055
349.007
348.956
348.917
348.909
348.886
348.526
346.791
342.772
343.17
347.309
348.659
348.963
349.044
349.071
349.093
349.12
349.146
349.169
349.186
349.198
349.206
349.209
349.21
349.207
349.201
349.192
349.179
349.16
349.136
349.107
349.075
349.045
349.024
349.005
348.939
348.655
347.325
343.19
343.596
347.684
348.783
349.017
349.087
349.113
349.13
349.147
349.165
349.181
349.195
349.204
349.21
349.213
349.213
349.211
349.205
349.197
349.185
349.17
349.151
349.131
349.11
349.094
349.081
349.064
349.007
348.788
347.702
343.615
343.996
347.947
348.868
349.06
349.117
349.139
349.151
349.161
349.173
349.184
349.193
349.2
349.205
349.207
349.207
349.204
349.199
349.192
349.183
349.171
349.158
349.145
349.133
349.125
349.119
349.106
349.06
348.878
347.967
344.014
344.338
348.138
348.925
349.089
349.136
349.154
349.162
349.168
349.174
349.181
349.187
349.191
349.194
349.196
349.195
349.193
349.189
349.183
349.176
349.168
349.16
349.153
349.148
349.145
349.143
349.133
349.093
348.938
348.157
344.354
344.628
348.277
348.964
349.105
349.147
349.161
349.166
349.169
349.172
349.175
349.178
349.18
349.182
349.182
349.181
349.179
349.176
349.172
349.168
349.163
349.159
349.157
349.156
349.157
349.156
349.148
349.113
348.978
348.295
344.642
344.869
348.38
348.989
349.114
349.15
349.162
349.166
349.167
349.167
349.167
349.168
349.168
349.168
349.167
349.166
349.164
349.162
349.16
349.158
349.157
349.156
349.156
349.158
349.161
349.162
349.155
349.124
349.003
348.396
344.881
345.06
348.456
349.006
349.117
349.149
349.159
349.162
349.161
349.16
349.158
349.157
349.155
349.154
349.152
349.151
349.15
349.149
349.148
349.148
349.149
349.15
349.153
349.157
349.16
349.162
349.155
349.127
349.019
348.47
345.07
345.205
348.509
349.015
349.116
349.145
349.154
349.156
349.154
349.152
349.149
349.146
349.143
349.141
349.139
349.137
349.136
349.136
349.136
349.138
349.14
349.144
349.148
349.153
349.157
349.158
349.152
349.126
349.027
348.521
345.213
345.308
348.545
349.02
349.114
349.141
349.148
349.149
349.148
349.144
349.14
349.136
349.133
349.129
349.127
349.125
349.124
349.124
349.126
349.129
349.132
349.137
349.142
349.147
349.152
349.153
349.148
349.124
349.031
348.556
345.316
345.375
348.566
349.022
349.112
349.136
349.143
349.144
349.142
349.138
349.134
349.129
349.125
349.121
349.118
349.116
349.115
349.116
349.118
349.121
349.126
349.131
349.137
349.142
349.147
349.148
349.143
349.12
349.033
348.577
345.382
345.407
348.576
349.023
349.109
349.133
349.14
349.14
349.138
349.134
349.129
349.124
349.12
349.115
349.112
349.11
349.11
349.111
349.113
349.117
349.122
349.127
349.133
349.139
349.143
349.145
349.14
349.118
349.032
348.586
345.413
345.407
348.575
349.022
349.108
349.132
349.139
349.139
349.136
349.132
349.128
349.123
349.118
349.114
349.111
349.109
349.108
349.109
349.112
349.115
349.12
349.126
349.132
349.137
349.141
349.143
349.138
349.116
349.03
348.584
345.413
345.373
348.564
349.019
349.108
349.133
349.14
349.14
349.137
349.133
349.129
349.124
349.12
349.116
349.113
349.112
349.111
349.112
349.114
349.117
349.121
349.126
349.132
349.137
349.141
349.143
349.138
349.115
349.028
348.572
345.379
345.306
348.54
349.015
349.109
349.135
349.142
349.142
349.14
349.137
349.133
349.129
349.125
349.122
349.12
349.118
349.117
349.118
349.119
349.122
349.125
349.129
349.134
349.138
349.142
349.144
349.139
349.115
349.023
348.549
345.312
345.202
348.503
349.009
349.109
349.137
349.145
349.146
349.144
349.141
349.138
349.135
349.133
349.131
349.129
349.127
349.127
349.126
349.127
349.128
349.13
349.133
349.136
349.14
349.144
349.145
349.139
349.114
349.015
348.511
345.208
345.057
348.449
348.997
349.107
349.138
349.147
349.149
349.148
349.146
349.144
349.143
349.142
349.141
349.14
349.139
349.138
349.137
349.136
349.136
349.136
349.137
349.139
349.142
349.144
349.145
349.139
349.11
349.003
348.457
345.063
344.866
348.373
348.979
349.102
349.136
349.147
349.149
349.15
349.15
349.15
349.151
349.152
349.153
349.153
349.152
349.151
349.149
349.147
349.144
349.142
349.141
349.14
349.141
349.142
349.142
349.134
349.103
348.984
348.38
344.872
344.624
348.269
348.952
349.091
349.13
349.142
349.147
349.149
349.152
349.155
349.159
349.162
349.164
349.165
349.165
349.164
349.161
349.157
349.153
349.148
349.143
349.139
349.136
349.135
349.134
349.125
349.09
348.955
348.275
344.63
344.334
348.128
348.911
349.072
349.117
349.132
349.139
349.144
349.151
349.158
349.165
349.171
349.175
349.177
349.178
349.176
349.173
349.167
349.16
349.152
349.143
349.134
349.127
349.122
349.118
349.106
349.066
348.912
348.134
344.34
343.992
347.937
348.852
349.04
349.093
349.112
349.123
349.134
349.146
349.158
349.169
349.178
349.184
349.187
349.188
349.186
349.182
349.175
349.166
349.154
349.14
349.126
349.112
349.101
349.092
349.077
349.029
348.848
347.941
343.998
343.592
347.673
348.764
348.992
349.058
349.082
349.099
349.117
349.136
349.154
349.17
349.181
349.189
349.193
349.194
349.192
349.188
349.18
349.168
349.153
349.134
349.113
349.09
349.071
349.055
349.034
348.974
348.754
347.674
343.597
343.165
347.296
348.635
348.932
349.009
349.035
349.059
349.087
349.116
349.141
349.16
349.174
349.184
349.189
349.19
349.188
349.184
349.175
349.162
349.144
349.12
349.091
349.057
349.025
349
348.976
348.904
348.618
347.292
343.17
342.744
346.763
348.515
348.895
348.929
348.941
348.978
349.024
349.066
349.099
349.124
349.141
349.152
349.158
349.16
349.158
349.153
349.144
349.129
349.108
349.079
349.04
348.992
348.94
348.898
348.884
348.853
348.485
346.753
342.747
342.825
346.28
349.006
348.812
348.651
348.662
348.743
348.825
348.891
348.941
348.978
349.003
349.02
349.031
349.035
349.034
349.027
349.014
348.994
348.965
348.924
348.869
348.796
348.705
348.615
348.595
348.751
348.952
346.256
342.829
336.249
355.39
349.287
347.589
347.249
347.42
347.654
347.852
348.009
348.132
348.224
348.292
348.34
348.37
348.384
348.383
348.367
348.335
348.286
348.216
348.121
347.995
347.833
347.627
347.382
347.196
347.518
349.202
355.307
336.256
428.31
356.706
347.911
343.638
342.901
342.979
343.195
343.436
343.676
343.883
344.049
344.179
344.276
344.341
344.373
344.373
344.34
344.274
344.176
344.045
343.878
343.67
343.428
343.184
342.962
342.874
343.594
347.839
356.601
428.096
445.716
362.633
347.1
338.7
336.118
335.519
335.496
335.653
335.877
336.108
336.318
336.49
336.618
336.702
336.743
336.743
336.701
336.616
336.487
336.314
336.104
335.874
335.654
335.508
335.555
336.199
338.847
347.317
362.907
446.121
331.724
360.363
351.565
346.374
343.578
342.72
342.71
342.956
343.245
343.511
343.734
343.91
344.038
344.121
344.162
344.161
344.12
344.036
343.907
343.732
343.509
343.249
342.973
342.751
342.801
343.71
346.545
351.731
360.48
331.625
336.47
343.015
348.699
348.17
346.945
346.251
346.041
346.059
346.15
346.251
346.341
346.415
346.47
346.507
346.525
346.524
346.506
346.469
346.414
346.342
346.257
346.167
346.094
346.102
346.341
347.056
348.276
348.759
343.005
336.43
335.533
341.279
345.719
347.292
347.39
347.19
347.055
347.014
347.024
347.053
347.085
347.115
347.138
347.155
347.163
347.163
347.154
347.138
347.117
347.091
347.066
347.048
347.052
347.11
347.257
347.456
347.335
345.723
341.254
335.503
335.923
341.733
345.375
346.825
347.278
347.357
347.34
347.322
347.319
347.328
347.34
347.353
347.365
347.374
347.378
347.378
347.374
347.367
347.357
347.348
347.342
347.342
347.353
347.379
347.396
347.308
346.835
345.359
341.7
335.893
336.294
342.532
345.691
346.815
347.23
347.378
347.423
347.435
347.441
347.448
347.456
347.464
347.471
347.477
347.48
347.48
347.478
347.474
347.469
347.464
347.461
347.459
347.458
347.447
347.398
347.24
346.809
345.667
342.495
336.265
336.701
343.185
346.014
346.923
347.257
347.398
347.46
347.489
347.505
347.515
347.524
347.531
347.538
347.542
347.544
347.545
347.543
347.54
347.536
347.531
347.526
347.518
347.503
347.473
347.404
347.254
346.908
345.988
343.149
336.673
337.131
343.697
346.261
347.03
347.306
347.429
347.491
347.526
347.548
347.562
347.573
347.581
347.588
347.592
347.595
347.595
347.594
347.59
347.585
347.578
347.569
347.555
347.533
347.496
347.427
347.297
347.013
346.236
343.667
337.107
337.525
344.103
346.45
347.12
347.356
347.464
347.522
347.559
347.583
347.6
347.613
347.623
347.631
347.636
347.639
347.639
347.637
347.633
347.626
347.617
347.604
347.587
347.561
347.522
347.458
347.345
347.103
346.429
344.08
337.507
337.862
344.422
346.597
347.194
347.402
347.498
347.553
347.589
347.614
347.634
347.649
347.661
347.67
347.676
347.679
347.679
347.677
347.671
347.663
347.651
347.636
347.616
347.588
347.55
347.492
347.392
347.18
346.581
344.406
337.849
338.143
344.669
346.712
347.256
347.444
347.531
347.582
347.617
347.643
347.664
347.681
347.694
347.705
347.712
347.716
347.716
347.713
347.706
347.696
347.682
347.665
347.643
347.615
347.578
347.525
347.435
347.245
346.701
344.658
338.135
338.368
344.855
346.799
347.306
347.479
347.56
347.608
347.642
347.668
347.69
347.709
347.724
347.735
347.743
347.747
347.747
347.744
347.736
347.724
347.709
347.69
347.667
347.64
347.604
347.555
347.473
347.299
346.792
344.849
338.363
338.537
344.99
346.862
347.343
347.507
347.583
347.629
347.662
347.689
347.711
347.731
347.747
347.76
347.769
347.773
347.773
347.769
347.76
347.747
347.731
347.711
347.688
347.66
347.626
347.579
347.502
347.339
346.859
344.987
338.534
338.649
345.077
346.904
347.368
347.526
347.599
347.644
347.676
347.703
347.726
347.747
347.764
347.777
347.786
347.791
347.791
347.787
347.777
347.764
347.747
347.726
347.702
347.675
347.641
347.596
347.523
347.366
346.902
345.076
338.647
338.705
345.12
346.924
347.381
347.535
347.608
347.651
347.684
347.711
347.734
347.755
347.773
347.786
347.796
347.801
347.801
347.796
347.786
347.773
347.755
347.734
347.71
347.682
347.65
347.606
347.533
347.379
346.923
345.12
338.704
338.705
345.12
346.924
347.381
347.535
347.608
347.652
347.684
347.711
347.735
347.756
347.773
347.787
347.796
347.801
347.801
347.796
347.787
347.773
347.755
347.734
347.71
347.683
347.65
347.606
347.534
347.38
346.923
345.12
338.704
338.649
345.077
346.903
347.368
347.526
347.599
347.644
347.677
347.704
347.728
347.748
347.765
347.779
347.788
347.793
347.793
347.788
347.779
347.765
347.748
347.727
347.704
347.676
347.643
347.598
347.524
347.367
346.902
345.076
338.647
338.537
344.989
346.862
347.343
347.507
347.583
347.63
347.663
347.69
347.713
347.733
347.75
347.762
347.771
347.775
347.776
347.771
347.763
347.75
347.733
347.713
347.69
347.662
347.628
347.581
347.504
347.34
346.86
344.987
338.534
338.368
344.854
346.798
347.305
347.479
347.56
347.609
347.643
347.671
347.693
347.712
347.727
347.739
347.747
347.751
347.751
347.747
347.739
347.727
347.712
347.693
347.671
347.643
347.608
347.558
347.476
347.301
346.794
344.85
338.364
338.142
344.667
346.71
347.254
347.443
347.532
347.584
347.619
347.646
347.668
347.685
347.699
347.709
347.716
347.72
347.72
347.716
347.71
347.699
347.686
347.668
347.647
347.619
347.583
347.529
347.439
347.249
346.704
344.66
338.136
337.859
344.418
346.594
347.192
347.401
347.499
347.555
347.592
347.618
347.638
347.654
347.666
347.675
347.681
347.684
347.684
347.681
347.675
347.667
347.655
347.64
347.62
347.594
347.556
347.498
347.398
347.186
346.585
344.409
337.851
337.521
344.098
346.445
347.117
347.355
347.465
347.526
347.563
347.588
347.606
347.619
347.629
347.636
347.641
347.644
347.644
347.642
347.637
347.631
347.621
347.609
347.592
347.567
347.528
347.465
347.352
347.11
346.435
344.085
337.51
337.126
343.689
346.255
347.027
347.306
347.432
347.497
347.533
347.555
347.569
347.58
347.588
347.594
347.598
347.6
347.6
347.598
347.595
347.59
347.583
347.574
347.561
347.539
347.503
347.436
347.306
347.022
346.244
343.673
337.112
336.694
343.175
346.008
346.921
347.259
347.404
347.469
347.499
347.514
347.524
347.532
347.538
347.544
347.548
347.55
347.55
347.548
347.545
347.54
347.535
347.53
347.522
347.509
347.48
347.413
347.265
346.92
345.999
343.158
336.678
336.286
342.52
345.685
346.816
347.237
347.389
347.436
347.448
347.453
347.458
347.465
347.472
347.478
347.483
347.485
347.485
347.482
347.478
347.473
347.468
347.465
347.463
347.462
347.453
347.406
347.251
346.823
345.682
342.505
336.271
335.913
341.722
345.372
346.832
347.293
347.375
347.358
347.338
347.333
347.339
347.35
347.361
347.372
347.379
347.383
347.383
347.379
347.371
347.361
347.352
347.345
347.345
347.356
347.383
347.403
347.319
346.851
345.378
341.715
335.902
335.523
341.272
345.725
347.311
347.418
347.219
347.08
347.034
347.04
347.065
347.095
347.123
347.145
347.161
347.168
347.168
347.159
347.143
347.121
347.095
347.069
347.05
347.053
347.111
347.26
347.463
347.35
345.746
341.277
335.517
336.458
343.016
348.726
348.212
346.988
346.287
346.069
346.079
346.165
346.262
346.35
346.423
346.477
346.513
346.531
346.53
346.511
346.474
346.418
346.346
346.261
346.169
346.094
346.1
346.338
347.055
348.283
348.781
343.036
336.453
331.69
360.411
351.629
346.436
343.626
342.752
342.731
342.97
343.255
343.52
343.742
343.917
344.045
344.128
344.168
344.168
344.126
344.041
343.912
343.736
343.513
343.251
342.973
342.749
342.795
343.702
346.539
351.736
360.512
331.665
445.863
362.727
347.171
338.748
336.147
335.535
335.506
335.659
335.882
336.114
336.324
336.495
336.622
336.706
336.748
336.747
336.705
336.62
336.491
336.318
336.108
335.876
335.654
335.507
335.551
336.191
338.835
347.304
362.903
446.169
446.746
362.591
346.886
337.871
334.788
333.872
333.663
333.674
333.759
333.852
333.934
334.003
334.058
334.097
334.118
334.12
334.102
334.067
334.016
333.951
333.872
333.78
333.691
333.665
333.842
334.697
337.685
346.599
362.223
446.154
332.618
361.005
352.905
347.013
343.1
341.393
340.945
341.038
341.309
341.601
341.86
342.068
342.224
342.327
342.38
342.382
342.334
342.236
342.085
341.881
341.624
341.327
341.041
340.916
341.314
342.957
346.819
352.707
360.836
332.689
336.542
343.912
350.169
349.625
347.594
346.094
345.479
345.422
345.59
345.804
345.996
346.146
346.255
346.325
346.361
346.364
346.333
346.268
346.163
346.013
345.817
345.592
345.402
345.425
345.997
347.466
349.495
350.077
343.886
336.542
334.38
340.728
345.989
348.367
348.498
347.982
347.609
347.49
347.525
347.616
347.711
347.789
347.846
347.883
347.902
347.904
347.889
347.856
347.801
347.721
347.619
347.513
347.457
347.55
347.9
348.41
348.296
345.954
340.718
334.383
334.359
340.275
344.696
347.292
348.245
348.365
348.276
348.213
348.213
348.252
348.301
348.346
348.379
348.402
348.414
348.415
348.406
348.385
348.351
348.302
348.245
348.194
348.179
348.227
348.308
348.192
347.258
344.687
340.284
334.38
334.532
340.791
344.864
347.137
348.085
348.39
348.452
348.454
348.46
348.481
348.51
348.539
348.562
348.578
348.587
348.587
348.58
348.564
348.539
348.506
348.47
348.44
348.424
348.416
348.355
348.059
347.128
344.875
340.819
334.562
334.702
341.424
345.418
347.343
348.108
348.401
348.502
348.535
348.551
348.567
348.587
348.607
348.623
348.635
348.642
348.642
348.635
348.623
348.604
348.58
348.556
348.534
348.514
348.48
348.383
348.101
347.351
345.442
341.461
334.735
334.873
341.991
345.911
347.574
348.192
348.433
348.528
348.566
348.584
348.598
348.612
348.626
348.637
348.646
348.651
348.65
348.645
348.635
348.622
348.605
348.589
348.572
348.553
348.517
348.428
348.197
347.591
345.94
342.028
334.903
335.048
342.469
346.271
347.748
348.269
348.466
348.546
348.579
348.595
348.605
348.614
348.623
348.631
348.637
348.64
348.639
348.636
348.629
348.62
348.609
348.599
348.588
348.574
348.543
348.47
348.282
347.769
346.299
342.501
335.07
335.216
342.865
346.528
347.865
348.321
348.489
348.556
348.584
348.596
348.602
348.607
348.611
348.616
348.619
348.621
348.62
348.618
348.614
348.609
348.604
348.599
348.593
348.584
348.56
348.498
348.336
347.886
346.552
342.888
335.232
335.368
343.182
346.709
347.939
348.35
348.5
348.559
348.582
348.591
348.593
348.594
348.596
348.597
348.599
348.599
348.599
348.598
348.596
348.595
348.593
348.593
348.592
348.586
348.566
348.511
348.366
347.957
346.727
343.197
335.377
335.495
343.425
346.835
347.985
348.364
348.503
348.557
348.577
348.582
348.582
348.581
348.58
348.579
348.579
348.579
348.579
348.579
348.579
348.58
348.582
348.584
348.586
348.582
348.565
348.514
348.378
347.999
346.847
343.433
335.5
335.593
343.599
346.919
348.012
348.369
348.5
348.551
348.569
348.573
348.571
348.568
348.565
348.563
348.562
348.562
348.562
348.562
348.564
348.566
348.57
348.575
348.578
348.576
348.56
348.511
348.382
348.023
346.927
343.604
335.596
335.66
343.711
346.971
348.026
348.37
348.495
348.544
348.562
348.565
348.562
348.558
348.554
348.551
348.549
348.548
348.548
348.55
348.552
348.556
348.561
348.566
348.57
348.569
348.554
348.506
348.381
348.036
346.976
343.713
335.661
335.694
343.765
346.994
348.032
348.368
348.491
348.539
348.556
348.559
348.556
348.551
348.546
348.543
348.541
348.54
348.54
348.541
348.544
348.548
348.554
348.56
348.564
348.563
348.548
348.501
348.378
348.04
346.998
343.766
335.693
335.693
343.764
346.993
348.03
348.366
348.489
348.536
348.553
348.555
348.552
348.548
348.543
348.54
348.538
348.537
348.537
348.538
348.541
348.545
348.55
348.556
348.56
348.559
348.544
348.498
348.375
348.037
346.996
343.765
335.693
335.658
343.708
346.966
348.02
348.363
348.488
348.536
348.553
348.555
348.553
348.549
348.545
348.542
348.54
348.539
348.539
348.54
348.542
348.545
348.55
348.555
348.559
348.558
348.543
348.495
348.371
348.028
346.97
343.709
335.659
335.59
343.594
346.912
348.002
348.358
348.487
348.537
348.554
348.558
348.556
348.553
348.55
348.548
348.547
348.547
348.546
348.547
348.548
348.55
348.553
348.557
348.56
348.558
348.542
348.494
348.366
348.01
346.917
343.597
335.592
335.491
343.418
346.825
347.972
348.349
348.485
348.538
348.557
348.562
348.562
348.561
348.56
348.559
348.559
348.559
348.559
348.558
348.558
348.558
348.559
348.56
348.561
348.558
348.54
348.49
348.356
347.98
346.833
343.424
335.494
335.363
343.175
346.698
347.924
348.331
348.479
348.536
348.559
348.566
348.569
348.57
348.572
348.574
348.575
348.576
348.575
348.574
348.571
348.568
348.566
348.564
348.562
348.555
348.535
348.481
348.337
347.933
346.708
343.185
335.369
335.212
342.859
346.517
347.848
348.3
348.465
348.53
348.557
348.568
348.575
348.58
348.585
348.59
348.593
348.595
348.594
348.591
348.586
348.58
348.573
348.567
348.56
348.549
348.524
348.462
348.302
347.856
346.529
342.873
335.222
335.044
342.464
346.26
347.73
348.246
348.439
348.517
348.55
348.566
348.576
348.586
348.596
348.604
348.61
348.613
348.612
348.608
348.6
348.589
348.578
348.565
348.553
348.536
348.505
348.43
348.243
347.735
346.272
342.482
335.058
334.871
341.986
345.899
347.554
348.167
348.403
348.497
348.534
348.553
348.568
348.583
348.598
348.611
348.62
348.624
348.623
348.618
348.607
348.592
348.574
348.555
348.537
348.515
348.477
348.386
348.156
347.553
345.908
342.005
334.887
334.7
341.419
345.406
347.323
348.081
348.37
348.47
348.502
348.52
348.538
348.56
348.581
348.598
348.61
348.617
348.616
348.609
348.595
348.575
348.55
348.524
348.5
348.477
348.441
348.341
348.058
347.31
345.408
341.434
334.717
334.53
340.786
344.851
347.116
348.055
348.357
348.418
348.421
348.43
348.454
348.486
348.516
348.54
348.556
348.564
348.564
348.556
348.539
348.513
348.479
348.441
348.409
348.391
348.38
348.315
348.017
347.086
344.839
340.789
334.542
334.357
340.268
344.682
347.268
348.212
348.329
348.242
348.182
348.187
348.228
348.28
348.326
348.361
348.383
348.395
348.396
348.386
348.364
348.329
348.279
348.221
348.168
348.151
348.197
348.275
348.155
347.22
344.65
340.253
334.357
334.378
340.722
345.974
348.337
348.459
347.942
347.574
347.462
347.502
347.598
347.696
347.775
347.832
347.868
347.887
347.889
347.874
347.839
347.784
347.703
347.6
347.493
347.436
347.528
347.876
348.382
348.265
345.92
340.687
334.359
336.544
343.909
350.141
349.579
347.545
346.051
345.448
345.4
345.574
345.792
345.985
346.137
346.245
346.315
346.35
346.353
346.322
346.256
346.15
346
345.804
345.577
345.387
345.409
345.981
347.448
349.474
350.051
343.858
336.517
332.661
360.966
352.843
346.948
343.047
341.356
340.921
341.023
341.299
341.594
341.853
342.061
342.216
342.319
342.371
342.374
342.326
342.227
342.076
341.872
341.614
341.315
341.028
340.903
341.3
342.944
346.806
352.691
360.815
332.672
446.593
362.483
346.8
337.811
334.752
333.851
333.65
333.666
333.753
333.846
333.928
333.997
334.052
334.091
334.111
334.112
334.095
334.06
334.009
333.943
333.864
333.772
333.681
333.655
333.832
334.687
337.677
346.592
362.212
446.108
442.883
361.846
346.793
337.52
333.665
332.042
331.361
331.097
331.027
331.032
331.062
331.098
331.129
331.151
331.162
331.159
331.143
331.115
331.078
331.037
331.004
331.002
331.087
331.385
332.133
333.868
337.884
347.317
362.497
443.999
330.688
358.908
351.98
346.496
342.229
339.766
338.591
338.159
338.104
338.212
338.373
338.531
338.661
338.751
338.795
338.791
338.739
338.642
338.505
338.342
338.183
338.089
338.178
338.669
339.933
342.498
346.846
352.347
359.264
330.624
335.047
342.346
348.833
348.753
346.746
344.737
343.425
342.781
342.581
342.617
342.752
342.907
343.041
343.136
343.182
343.177
343.121
343.018
342.877
342.721
342.596
342.585
342.831
343.538
344.922
346.984
348.999
349.032
342.438
335.075
332.452
338.851
344.284
347.149
347.622
346.991
346.234
345.732
345.5
345.447
345.483
345.549
345.613
345.66
345.683
345.679
345.649
345.597
345.531
345.469
345.446
345.528
345.802
346.356
347.154
347.798
347.299
344.38
338.903
332.48
331.963
337.771
342.345
345.501
347.073
347.447
347.304
347.069
346.895
346.801
346.764
346.759
346.767
346.776
346.781
346.779
346.771
346.761
346.756
346.77
346.822
346.94
347.145
347.41
347.57
347.187
345.582
342.387
337.782
331.951
331.905
337.814
341.947
344.882
346.618
347.346
347.533
347.508
347.43
347.362
347.316
347.289
347.275
347.268
347.266
347.265
347.268
347.277
347.296
347.332
347.392
347.479
347.574
347.613
347.425
346.679
344.912
341.943
337.789
331.871
331.969
338.199
342.222
344.952
346.523
347.253
347.546
347.633
347.632
347.603
347.571
347.546
347.528
347.518
347.513
347.514
347.521
347.535
347.558
347.592
347.633
347.673
347.683
347.599
347.296
346.543
344.942
342.183
338.149
331.927
332.087
338.653
342.699
345.274
346.616
347.248
347.545
347.671
347.712
347.714
347.701
347.686
347.672
347.662
347.658
347.66
347.667
347.68
347.699
347.721
347.741
347.744
347.704
347.574
347.265
346.61
345.238
342.645
338.596
332.045
332.231
339.099
343.193
345.615
346.762
347.297
347.563
347.694
347.754
347.775
347.777
347.771
347.763
347.757
347.754
347.756
347.762
347.771
347.783
347.793
347.794
347.774
347.713
347.574
347.295
346.741
345.572
343.136
339.048
332.197
332.379
339.507
343.637
345.906
346.905
347.364
347.596
347.719
347.784
347.815
347.826
347.828
347.826
347.823
347.822
347.824
347.827
347.833
347.838
347.838
347.827
347.795
347.726
347.595
347.351
346.878
345.864
343.587
339.467
332.353
332.516
339.861
344.008
346.139
347.031
347.431
347.635
347.747
347.811
347.846
347.863
347.87
347.872
347.872
347.873
347.874
347.876
347.877
347.877
347.87
347.852
347.814
347.746
347.626
347.413
347.002
346.102
343.968
339.831
332.497
332.632
340.149
344.299
346.319
347.134
347.492
347.674
347.776
347.836
347.872
347.892
347.902
347.907
347.91
347.911
347.911
347.912
347.91
347.906
347.895
347.873
347.834
347.769
347.66
347.471
347.106
346.288
344.27
340.128
332.618
332.722
340.368
344.512
346.452
347.214
347.543
347.708
347.802
347.858
347.893
347.914
347.927
347.934
347.937
347.939
347.94
347.939
347.935
347.928
347.914
347.891
347.853
347.791
347.692
347.522
347.188
346.426
344.49
340.352
332.712
332.785
340.516
344.651
346.539
347.269
347.58
347.735
347.822
347.876
347.91
347.932
347.945
347.953
347.957
347.959
347.959
347.958
347.953
347.944
347.93
347.906
347.868
347.811
347.718
347.559
347.246
346.516
344.633
340.505
332.777
332.818
340.592
344.72
346.584
347.299
347.601
347.751
347.836
347.888
347.921
347.942
347.956
347.964
347.969
347.971
347.971
347.969
347.964
347.955
347.94
347.916
347.88
347.824
347.735
347.581
347.277
346.563
344.704
340.583
332.811
332.82
340.594
344.723
346.588
347.303
347.606
347.755
347.84
347.893
347.926
347.947
347.96
347.968
347.973
347.975
347.975
347.973
347.968
347.959
347.944
347.921
347.885
347.829
347.74
347.587
347.282
346.568
344.707
340.585
332.813
332.79
340.523
344.659
346.55
347.281
347.593
347.748
347.836
347.89
347.924
347.944
347.957
347.965
347.969
347.971
347.971
347.97
347.966
347.958
347.944
347.921
347.884
347.827
347.735
347.576
347.261
346.53
344.643
340.512
332.782
332.731
340.379
344.526
346.469
347.234
347.565
347.731
347.824
347.881
347.915
347.935
347.947
347.953
347.957
347.958
347.959
347.958
347.955
347.949
347.937
347.915
347.878
347.818
347.72
347.55
347.214
346.448
344.507
340.365
332.721
332.644
340.165
344.318
346.342
347.161
347.522
347.704
347.806
347.866
347.901
347.92
347.929
347.933
347.935
347.936
347.937
347.937
347.937
347.934
347.925
347.905
347.869
347.806
347.699
347.51
347.143
346.32
344.295
340.147
332.632
332.531
339.879
344.029
346.167
347.065
347.468
347.673
347.785
347.848
347.881
347.896
347.902
347.903
347.903
347.902
347.904
347.906
347.909
347.91
347.906
347.891
347.856
347.791
347.674
347.462
347.05
346.145
344.002
339.857
332.516
332.397
339.528
343.66
345.939
346.945
347.407
347.64
347.763
347.826
347.854
347.864
347.864
347.86
347.857
347.855
347.857
347.861
347.868
347.875
347.878
347.87
347.842
347.778
347.651
347.41
346.937
345.918
343.63
339.501
332.378
332.25
339.121
343.219
345.652
346.808
347.347
347.613
347.742
347.799
347.817
347.816
347.808
347.799
347.792
347.788
347.79
347.797
347.808
347.821
347.834
347.839
347.824
347.769
347.637
347.363
346.81
345.636
343.19
339.091
332.228
332.106
338.677
342.73
345.315
346.668
347.303
347.599
347.722
347.759
347.757
347.741
347.722
347.707
347.696
347.692
347.693
347.701
347.716
347.736
347.761
347.784
347.793
347.761
347.639
347.338
346.688
345.313
342.71
338.65
332.084
331.992
338.228
342.26
345.001
346.58
347.312
347.603
347.683
347.677
347.643
347.607
347.58
347.56
347.549
347.544
347.545
347.552
347.567
347.592
347.628
347.673
347.718
347.735
347.661
347.37
346.626
345.026
342.261
338.214
331.975
331.933
337.854
341.996
344.941
346.682
347.408
347.588
347.555
347.47
347.396
347.346
347.317
347.302
347.295
347.292
347.292
347.296
347.305
347.324
347.362
347.424
347.514
347.616
347.665
347.492
346.761
345.002
342.031
337.866
331.928
331.998
337.821
342.406
345.569
347.141
347.508
347.355
347.109
346.925
346.826
346.786
346.78
346.787
346.797
346.802
346.8
346.793
346.783
346.779
346.792
346.844
346.963
347.172
347.446
347.619
347.256
345.67
342.483
337.872
332.018
332.497
338.911
344.354
347.223
347.692
347.048
346.277
345.761
345.519
345.46
345.495
345.561
345.626
345.674
345.697
345.694
345.665
345.613
345.546
345.482
345.458
345.539
345.814
346.372
347.179
347.843
347.369
344.473
339
332.558
335.094
342.411
348.916
348.834
346.815
344.79
343.46
342.802
342.592
342.622
342.756
342.911
343.047
343.143
343.19
343.186
343.13
343.027
342.886
342.73
342.605
342.593
342.837
343.543
344.928
346.999
349.036
349.102
342.534
335.164
330.711
359.024
352.082
346.585
342.297
339.812
338.618
338.175
338.112
338.218
338.378
338.537
338.669
338.76
338.804
338.801
338.749
338.652
338.515
338.352
338.194
338.099
338.186
338.674
339.933
342.495
346.847
352.37
359.332
330.727
443.207
362.003
346.912
337.603
333.716
332.072
331.379
331.107
331.034
331.038
331.069
331.105
331.138
331.161
331.172
331.169
331.154
331.126
331.089
331.048
331.016
331.014
331.099
331.396
332.138
333.864
337.867
347.295
362.485
444.113
435.94
357.583
343.642
335.478
332.55
331.476
331.069
330.925
330.894
330.899
330.916
330.934
330.951
330.965
330.974
330.977
330.975
330.967
330.956
330.942
330.927
330.915
330.931
331.038
331.375
332.32
335.04
342.96
356.676
434.321
331.651
356.746
349.721
344.406
340.632
338.663
337.827
337.577
337.592
337.707
337.844
337.97
338.072
338.142
338.181
338.185
338.155
338.091
337.996
337.874
337.735
337.604
337.552
337.734
338.465
340.301
343.953
349.221
356.231
331.683
335.337
342.217
347.83
347.369
345.352
343.518
342.4
341.908
341.801
341.882
342.029
342.179
342.304
342.393
342.44
342.445
342.407
342.326
342.207
342.057
341.899
341.789
341.844
342.261
343.288
345.045
347.036
347.543