/*--------------------------------*- C++ -*----------------------------------*\
| =========                 |                                                 |
| \\      /  F ield         | OpenFOAM: The Open Source CFD Toolbox           |
|  \\    /   O peration     | Version:  2312                                  |
|   \\  /    A nd           | Website:  www.openfoam.com                      |
|    \\/     M anipulation  |                                                 |
\*---------------------------------------------------------------------------*/
FoamFile
{
    version     2.0;
    format      ascii;
    arch        "LSB;label=32;scalar=64";
    class       volVectorField;
    location    "850";
    object      U;
}
// * * * * * * * * * * * * * * * * * * * * * * * * * * * * * * * * * * * * * //

dimensions      [0 1 -1 0 0 0 0];

internalField   nonuniform List<vector> 
27000
(
(-6.19228e-05 9.88401e-05 0.107592)
(-0.000208753 0.00021854 0.0764668)
(-0.000104394 0.000225259 0.0819226)
(-7.51062e-05 0.000202735 0.083564)
(-3.9747e-05 0.000195975 0.0854565)
(-1.82424e-05 0.000195273 0.0869304)
(-2.38058e-06 0.000197037 0.0880286)
(8.95252e-06 0.000199526 0.0889067)
(1.61438e-05 0.000202371 0.0896395)
(1.95668e-05 0.000205238 0.0902234)
(1.99541e-05 0.000207906 0.0906732)
(1.80658e-05 0.00021028 0.0910127)
(1.45585e-05 0.000212228 0.0912596)
(9.98603e-06 0.000213604 0.0914214)
(4.81676e-06 0.000214342 0.0915014)
(-5.2819e-07 0.000214418 0.0915015)
(-5.64535e-06 0.000213836 0.0914216)
(-1.01057e-05 0.000212614 0.0912601)
(-1.34203e-05 0.000210823 0.0910137)
(-1.50137e-05 0.000208621 0.090675)
(-1.42017e-05 0.000206151 0.0902261)
(-1.01972e-05 0.000203545 0.0896427)
(-2.27992e-06 0.000201069 0.0889095)
(9.89239e-06 0.000199105 0.0880297)
(2.65956e-05 0.000198097 0.0869273)
(4.88299e-05 0.000199772 0.0854454)
(8.42419e-05 0.000207369 0.0835388)
(0.00011304 0.000230568 0.0818751)
(0.000216535 0.000224408 0.0763928)
(6.91694e-05 0.000104757 0.107456)
(0.000303779 -0.000138009 0.0626976)
(0.000132455 -5.33015e-05 0.0836791)
(0.00010367 0.000150415 0.0917351)
(6.36137e-05 0.000204904 0.0945411)
(5.67674e-05 0.000230203 0.0959226)
(5.87909e-05 0.000246338 0.096873)
(6.06075e-05 0.000259363 0.0975584)
(6.10169e-05 0.00027055 0.0980672)
(5.9329e-05 0.000279941 0.098455)
(5.52199e-05 0.000287648 0.0987485)
(4.87731e-05 0.000293817 0.0989654)
(4.03969e-05 0.000298588 0.0991221)
(3.05814e-05 0.00030209 0.0992313)
(1.97963e-05 0.000304404 0.0993007)
(8.46617e-06 0.000305596 0.0993341)
(-3.01934e-06 0.000305701 0.0993334)
(-1.42705e-05 0.000304716 0.0992985)
(-2.48921e-05 0.000302614 0.0992278)
(-3.44611e-05 0.000299336 0.0991172)
(-4.2504e-05 0.00029481 0.0989588)
(-4.85384e-05 0.000288941 0.0987394)
(-5.21875e-05 0.00028163 0.0984417)
(-5.34075e-05 0.0002728 0.0980466)
(-5.25965e-05 0.000262403 0.0975258)
(-5.05426e-05 0.000250401 0.0968221)
(-4.85268e-05 0.00023546 0.0958468)
(-5.58476e-05 0.000211122 0.0944376)
(-9.75307e-05 0.000156786 0.091611)
(-0.00012931 -4.97173e-05 0.0835636)
(-0.000306064 -0.000139245 0.0626568)
(9.26787e-05 0.000142568 0.0806632)
(0.000119839 0.000165597 0.0900109)
(0.000162424 0.000215123 0.0968657)
(0.000152207 0.000243993 0.0985598)
(0.000134298 0.000262725 0.0991297)
(0.000120087 0.00027603 0.0994613)
(0.000108082 0.000286732 0.0997179)
(9.72084e-05 0.00029588 0.0999209)
(8.66711e-05 0.000303675 0.100079)
(7.57617e-05 0.000310095 0.100201)
(6.40669e-05 0.000315176 0.100291)
(5.14806e-05 0.000319039 0.100355)
(3.81138e-05 0.000321813 0.100398)
(2.41652e-05 0.000323625 0.100425)
(9.87698e-06 0.00032456 0.100437)
(-4.49793e-06 0.000324665 0.100435)
(-1.8704e-05 0.000323943 0.100419)
(-3.24918e-05 0.000322353 0.100389)
(-4.563e-05 0.000319822 0.10034)
(-5.79392e-05 0.000316246 0.10027)
(-6.93435e-05 0.000311524 0.100172)
(-7.99922e-05 0.000305596 0.100039)
(-9.03519e-05 0.000298473 0.099865)
(-0.000101186 0.00029019 0.0996414)
(-0.000113334 0.000280513 0.0993595)
(-0.000127916 0.00026821 0.0990009)
(-0.000146565 0.000250079 0.0984103)
(-0.000158182 0.000220577 0.0967197)
(-0.000118099 0.000168419 0.0899147)
(-9.40538e-05 0.000141454 0.0806234)
(0.000143399 5.71046e-05 0.0840257)
(0.00015419 0.000143209 0.0940495)
(0.000183222 0.000218453 0.0982761)
(0.000177336 0.000242444 0.0993689)
(0.00016359 0.000256629 0.0997298)
(0.000147166 0.000266743 0.0999194)
(0.000130733 0.000274998 0.100067)
(0.000115078 0.000282266 0.100195)
(0.000100185 0.000288674 0.100302)
(8.56629e-05 0.000294132 0.100388)
(7.11327e-05 0.000298543 0.100454)
(5.63576e-05 0.000301924 0.100502)
(4.1248e-05 0.000304356 0.100535)
(2.58442e-05 0.000305941 0.100555)
(1.02491e-05 0.000306765 0.100563)
(-5.38723e-06 0.00030688 0.10056)
(-2.09106e-05 0.00030629 0.100545)
(-3.61814e-05 0.000304959 0.100519)
(-5.111e-05 0.000302818 0.100478)
(-6.56899e-05 0.000299789 0.100421)
(-8.00469e-05 0.000295828 0.100343)
(-9.44574e-05 0.000290958 0.100241)
(-0.000109345 0.000285295 0.100116)
(-0.00012512 0.000278909 0.0999674)
(-0.000141821 0.000271564 0.0997979)
(-0.000158665 0.0002622 0.0995912)
(-0.000173023 0.000248251 0.099225)
(-0.00017994 0.00022337 0.0981511)
(-0.000153023 0.00014523 0.0939803)
(-0.000144483 5.56615e-05 0.0840089)
(0.000137573 9.05848e-05 0.08657)
(0.000174124 0.000153849 0.0960609)
(0.000202232 0.000211277 0.0990316)
(0.000194169 0.000232262 0.099688)
(0.00018024 0.000243936 0.0999116)
(0.000163258 0.000251884 0.100033)
(0.000145208 0.000258176 0.100131)
(0.000127315 0.000263672 0.100223)
(0.000109983 0.000268596 0.100306)
(9.31531e-05 0.000272889 0.100378)
(7.66085e-05 0.000276454 0.100437)
(6.01549e-05 0.000279238 0.100481)
(4.36602e-05 0.000281272 0.100512)
(2.70693e-05 0.00028261 0.100531)
(1.04083e-05 0.000283325 0.100538)
(-6.26274e-06 0.000283455 0.100534)
(-2.28677e-05 0.000283011 0.100519)
(-3.93525e-05 0.000281967 0.100491)
(-5.57168e-05 0.000280279 0.10045)
(-7.20374e-05 0.000277912 0.100394)
(-8.84833e-05 0.00027487 0.100322)
(-0.000105282 0.000271222 0.100234)
(-0.000122658 0.000267062 0.100133)
(-0.000140686 0.000262392 0.100025)
(-0.000158956 0.000256874 0.0999127)
(-0.000176216 0.000249463 0.0997851)
(-0.000190513 0.000237809 0.0995682)
(-0.000199215 0.000215856 0.0989379)
(-0.000172652 0.000155883 0.0960184)
(-0.000137779 8.97579e-05 0.0865679)
(0.000144793 9.08161e-05 0.0884028)
(0.000190545 0.000157856 0.0972423)
(0.000216807 0.000202653 0.0994674)
(0.000207386 0.000218106 0.0998935)
(0.000192557 0.000227098 0.10002)
(0.00017487 0.00023322 0.100088)
(0.000155912 0.000238016 0.100148)
(0.000136774 0.000242153 0.100212)
(0.000117947 0.00024584 0.100276)
(9.95321e-05 0.000249081 0.100336)
(8.14647e-05 0.000251814 0.100388)
(6.36229e-05 0.000253995 0.100429)
(4.58864e-05 0.000255615 0.100459)
(2.81835e-05 0.000256707 0.100477)
(1.04851e-05 0.000257311 0.100484)
(-7.1994e-06 0.000257461 0.100479)
(-2.48526e-05 0.000257167 0.100463)
(-4.24764e-05 0.000256417 0.100434)
(-6.01128e-05 0.000255193 0.100393)
(-7.78623e-05 0.000253488 0.100339)
(-9.58642e-05 0.000251323 0.100273)
(-0.000114255 0.000248753 0.100199)
(-0.00013311 0.000245804 0.100121)
(-0.000152315 0.000242409 0.100047)
(-0.000171357 0.00023825 0.0999801)
(-0.000189148 0.000232503 0.0999146)
(-0.000204107 0.000223424 0.0998021)
(-0.00021385 0.000207107 0.0994041)
(-0.000188658 0.000160217 0.0972219)
(-0.000144237 9.07987e-05 0.08841)
(0.000151706 9.0532e-05 0.0897742)
(0.000205484 0.000153014 0.0979898)
(0.000229208 0.000189081 0.0997376)
(0.000218526 0.000200949 0.100036)
(0.000202696 0.000207741 0.100104)
(0.000184274 0.000212372 0.100133)
(0.000164633 0.00021598 0.100163)
(0.000144665 0.000219054 0.100202)
(0.000124814 0.000221758 0.100248)
(0.000105243 0.000224118 0.100295)
(8.59685e-05 0.000226118 0.100339)
(6.69312e-05 0.00022773 0.100376)
(4.80534e-05 0.000228951 0.100404)
(2.92638e-05 0.000229796 0.100422)
(1.05206e-05 0.000230291 0.100428)
(-8.19664e-06 0.000230463 0.100423)
(-2.69028e-05 0.000230319 0.100406)
(-4.56263e-05 0.000229862 0.100377)
(-6.44227e-05 0.000229083 0.100338)
(-8.33757e-05 0.000227984 0.100289)
(-0.00010258 0.000226579 0.100232)
(-0.000122098 0.000224881 0.100173)
(-0.00014191 0.000222869 0.100118)
(-0.00016184 0.000220449 0.100073)
(-0.000181435 0.000217357 0.100043)
(-0.000199789 0.000212995 0.100022)
(-0.00021558 0.000206093 0.0999712)
(-0.000226377 0.000193526 0.0996986)
(-0.00020335 0.000155824 0.0979844)
(-0.000150673 9.14034e-05 0.0897863)
(0.000158624 8.70094e-05 0.0908067)
(0.000218582 0.000143698 0.0984872)
(0.000239827 0.000172385 0.0999122)
(0.000228044 0.000181551 0.100134)
(0.000211287 0.000186694 0.100169)
(0.000192195 0.000190164 0.100173)
(0.000171981 0.00019283 0.100181)
(0.000151388 0.000195053 0.100201)
(0.000130784 0.00019696 0.10023)
(0.000110332 0.000198595 0.100265)
(9.00832e-05 0.000199967 0.100301)
(7.00242e-05 0.000201077 0.100332)
(5.01083e-05 0.00020193 0.100357)
(3.02872e-05 0.000202542 0.100372)
(1.05226e-05 0.000202934 0.100377)
(-9.21349e-06 0.000203124 0.100372)
(-2.89448e-05 0.000203124 0.100356)
(-4.87024e-05 0.000202937 0.10033)
(-6.85342e-05 0.000202558 0.100294)
(-8.84981e-05 0.000201985 0.100252)
(-0.000108645 0.00020121 0.100206)
(-0.000128989 0.000200212 0.100163)
(-0.000149474 0.000198939 0.100127)
(-0.000169927 0.000197283 0.100107)
(-0.000189974 0.000195046 0.100103)
(-0.000208886 0.000191786 0.100109)
(-0.000225489 0.000186553 0.100091)
(-0.000237261 0.000176865 0.0998908)
(-0.000216476 0.000146947 0.0984909)
(-0.000157396 8.86185e-05 0.0908203)
(0.000165801 8.07063e-05 0.091607)
(0.000230166 0.000130698 0.0988318)
(0.000249021 0.000153451 0.100028)
(0.00023618 0.000160485 0.100201)
(0.000218573 0.000164362 0.100216)
(0.000198868 0.000166908 0.100206)
(0.000178165 0.000168819 0.1002)
(0.000157075 0.00017036 0.100206)
(0.000135891 0.000171633 0.100222)
(0.000114754 0.000172687 0.100246)
(9.37201e-05 0.000173549 0.100273)
(7.27978e-05 0.000174241 0.100298)
(5.19693e-05 0.000174781 0.100318)
(3.12082e-05 0.000175191 0.100332)
(1.04911e-05 0.000175491 0.100336)
(-1.01995e-05 0.000175697 0.100331)
(-3.08796e-05 0.00017582 0.100316)
(-5.15712e-05 0.00017586 0.100293)
(-7.23008e-05 0.000175813 0.100262)
(-9.30992e-05 0.000175662 0.100228)
(-0.000113987 0.000175381 0.100193)
(-0.000134955 0.000174926 0.100164)
(-0.000155942 0.000174226 0.100145)
(-0.000176805 0.000173183 0.100141)
(-0.000197257 0.000171637 0.100153)
(-0.000216705 0.000169275 0.100174)
(-0.000234099 0.000165352 0.100174)
(-0.000246858 0.000157947 0.100018)
(-0.000228294 0.000134266 0.0988403)
(-0.000164597 8.28221e-05 0.0916201)
(0.000172554 7.19325e-05 0.0922318)
(0.000240227 0.000114785 0.0990775)
(0.000256912 0.000132663 0.100106)
(0.000243083 0.000138015 0.100244)
(0.000224687 0.000140891 0.100248)
(0.000204416 0.000142711 0.10023)
(0.000183292 0.000144027 0.100216)
(0.000161797 0.000145035 0.100213)
(0.000140157 0.000145819 0.10022)
(0.000118481 0.000146428 0.100235)
(9.68161e-05 0.0001469 0.100254)
(7.51803e-05 0.00014727 0.100273)
(5.35737e-05 0.000147566 0.100289)
(3.19914e-05 0.000147815 0.1003)
(1.04304e-05 0.00014804 0.100303)
(-1.11094e-05 0.000148255 0.100298)
(-3.26283e-05 0.00014847 0.100286)
(-5.4127e-05 0.000148684 0.100266)
(-7.56118e-05 0.000148883 0.100241)
(-9.70893e-05 0.000149043 0.100215)
(-0.00011856 0.000149124 0.10019)
(-0.000140008 0.000149067 0.100171)
(-0.000161386 0.0001488 0.100164)
(-0.000182591 0.000148231 0.100171)
(-0.000203407 0.000147238 0.100192)
(-0.000223378 0.000145594 0.10022)
(-0.000241525 0.000142714 0.100229)
(-0.000255229 0.00013711 0.100104)
(-0.000238707 0.000118509 0.0990885)
(-0.0001715 7.43219e-05 0.0922442)
(0.000178488 6.12444e-05 0.0927078)
(0.000248675 9.66115e-05 0.0992528)
(0.000263498 0.000110358 0.100157)
(0.000248784 0.000114336 0.100271)
(0.000229701 0.0001164 0.100268)
(0.000208942 0.000117659 0.100247)
(0.000187454 0.000118514 0.100228)
(0.000165624 0.000119117 0.100219)
(0.000143622 0.000119539 0.10022)
(0.00012152 0.000119826 0.100228)
(9.93534e-05 0.00012002 0.100241)
(7.714e-05 0.000120161 0.100256)
(5.48918e-05 0.000120283 0.100268)
(3.26221e-05 0.000120417 0.100276)
(1.03474e-05 0.000120585 0.100278)
(-1.19129e-05 0.000120802 0.100274)
(-3.41373e-05 0.000121075 0.100263)
(-5.63077e-05 0.0001214 0.100247)
(-7.84088e-05 0.00012176 0.100228)
(-0.000100429 0.000122124 0.100208)
(-0.000122358 0.000122444 0.100191)
(-0.000144183 0.000122661 0.100181)
(-0.000165873 0.000122703 0.100182)
(-0.000187367 0.000122492 0.100195)
(-0.000208511 0.000121931 0.10022)
(-0.000228943 0.000120846 0.100251)
(-0.000247756 0.000118812 0.100264)
(-0.000262309 0.000114662 0.10016)
(-0.000247543 0.00010033 0.0992653)
(-0.000177637 6.37215e-05 0.0927199)
(0.000183402 4.90757e-05 0.0930599)
(0.000255458 7.67037e-05 0.099375)
(0.000268776 8.68352e-05 0.10019)
(0.000253323 8.96551e-05 0.100286)
(0.000233668 9.10572e-05 0.100279)
(0.000212505 9.18623e-05 0.100256)
(0.000190717 9.23598e-05 0.100235)
(0.00016862 9.2663e-05 0.100224)
(0.000146332 9.28278e-05 0.100221)
(0.0001239 9.28964e-05 0.100225)
(0.000101343 9.29095e-05 0.100233)
(7.86758e-05 9.29051e-05 0.100243)
(5.59188e-05 9.29186e-05 0.100252)
(3.3099e-05 9.29788e-05 0.100258)
(1.02498e-05 9.31077e-05 0.100259)
(-1.25899e-05 9.33187e-05 0.100256)
(-3.5381e-05 9.3617e-05 0.100247)
(-5.80856e-05 9.39957e-05 0.100235)
(-8.06715e-05 9.44373e-05 0.10022)
(-0.000103115 9.49087e-05 0.100206)
(-0.000125399 9.5365e-05 0.100195)
(-0.000147516 9.57494e-05 0.10019)
(-0.000169455 9.59988e-05 0.100195)
(-0.000191185 9.6048e-05 0.100211)
(-0.000212605 9.58199e-05 0.100238)
(-0.000233423 9.51864e-05 0.100269)
(-0.000252788 9.38381e-05 0.100284)
(-0.000268049 9.08997e-05 0.100197)
(-0.000254703 8.0277e-05 0.0993885)
(-0.000182762 5.15076e-05 0.0930719)
(0.000187179 3.58067e-05 0.0933073)
(0.000260554 5.5504e-05 0.0994563)
(0.000272738 6.23678e-05 0.10021)
(0.000256716 6.41752e-05 0.100293)
(0.000236626 6.5018e-05 0.100283)
(0.000215153 6.54513e-05 0.100259)
(0.000193134 6.56716e-05 0.100239)
(0.000170834 6.5756e-05 0.100226)
(0.000148333 6.57479e-05 0.10022)
(0.000125655 6.56823e-05 0.100222)
(0.000102806 6.55929e-05 0.100227)
(7.98003e-05 6.55128e-05 0.100234)
(5.66617e-05 6.54715e-05 0.10024)
(3.34277e-05 6.54939e-05 0.100245)
(1.01452e-05 6.55981e-05 0.100245)
(-1.31323e-05 6.57955e-05 0.100242)
(-3.63495e-05 6.60887e-05 0.100235)
(-5.94545e-05 6.64723e-05 0.100226)
(-8.24021e-05 6.69286e-05 0.100215)
(-0.000105159 6.74303e-05 0.100204)
(-0.000127707 6.79378e-05 0.100198)
(-0.000150042 6.84048e-05 0.100197)
(-0.000172169 6.87797e-05 0.100204)
(-0.000194081 6.90102e-05 0.100222)
(-0.000215714 6.90378e-05 0.100248)
(-0.000236827 6.87716e-05 0.100278)
(-0.000256612 6.79974e-05 0.100295)
(-0.000272412 6.61069e-05 0.100219)
(-0.000260131 5.8828e-05 0.0994708)
(-0.000186733 3.81066e-05 0.0933196)
(0.000189742 2.17776e-05 0.0934644)
(0.000263952 3.34102e-05 0.0995053)
(0.000275377 3.72286e-05 0.10022)
(0.000258973 3.81214e-05 0.100295)
(0.000238591 3.84697e-05 0.100283)
(0.00021691 3.85879e-05 0.100259)
(0.000194736 3.85857e-05 0.100238)
(0.000172297 3.85107e-05 0.100225)
(0.000149652 3.83915e-05 0.100219)
(0.000126807 3.82534e-05 0.100218)
(0.000103762 3.81206e-05 0.100222)
(8.05265e-05 3.80162e-05 0.100227)
(5.71293e-05 3.79611e-05 0.100232)
(3.36141e-05 3.79724e-05 0.100235)
(1.00374e-05 3.80627e-05 0.100235)
(-1.35371e-05 3.82396e-05 0.100233)
(-3.70432e-05 3.85052e-05 0.100227)
(-6.04186e-05 3.88547e-05 0.100219)
(-8.36096e-05 3.9276e-05 0.10021)
(-0.000106578 3.97486e-05 0.100203)
(-0.000129303 4.02449e-05 0.100199)
(-0.000151785 4.07313e-05 0.1002)
(-0.000174039 4.1171e-05 0.100209)
(-0.000196074 4.15255e-05 0.100226)
(-0.000217849 4.17542e-05 0.100252)
(-0.000239159 4.17974e-05 0.100282)
(-0.00025922 4.15268e-05 0.1003)
(-0.000275379 4.05805e-05 0.10023)
(-0.000263805 3.6416e-05 0.0995205)
(-0.000189461 2.38962e-05 0.0934769)
(0.000191044 7.30003e-06 0.0935401)
(0.000265646 1.07901e-05 0.0995272)
(0.000276689 1.16896e-05 0.100223)
(0.000260092 1.17223e-05 0.100294)
(0.000239566 1.16164e-05 0.100281)
(0.000217783 1.14524e-05 0.100257)
(0.000195531 1.12626e-05 0.100236)
(0.000173023 1.10648e-05 0.100222)
(0.000150302 1.0874e-05 0.100215)
(0.000127369 1.07031e-05 0.100214)
(0.000104219 1.05645e-05 0.100217)
(8.08617e-05 1.0469e-05 0.100221)
(5.73264e-05 1.0426e-05 0.100225)
(3.36609e-05 1.0443e-05 0.100228)
(9.92699e-06 1.05256e-05 0.100228)
(-1.38057e-05 1.06775e-05 0.100226)
(-3.74652e-05 1.08997e-05 0.100221)
(-6.09836e-05 1.11903e-05 0.100214)
(-8.4303e-05 1.15435e-05 0.100207)
(-0.000107382 1.19493e-05 0.1002)
(-0.000130199 1.2394e-05 0.100197)
(-0.000152757 1.28595e-05 0.100199)
(-0.000175075 1.33248e-05 0.100209)
(-0.00019717 1.37678e-05 0.100226)
(-0.000219014 1.41635e-05 0.100252)
(-0.000240416 1.4483e-05 0.100282)
(-0.000260609 1.46755e-05 0.1003)
(-0.000276942 1.46163e-05 0.100234)
(-0.000265713 1.3441e-05 0.0995429)
(-0.000190897 9.21597e-06 0.0935528)
(0.000191059 -7.33084e-06 0.0935387)
(0.000265631 -1.20044e-05 0.0995247)
(0.000276668 -1.39819e-05 0.100219)
(0.000260072 -1.47882e-05 0.100291)
(0.000239549 -1.53326e-05 0.100277)
(0.00021777 -1.57636e-05 0.100252)
(0.00019552 -1.6126e-05 0.100231)
(0.00017301 -1.64294e-05 0.100217)
(0.000150284 -1.66747e-05 0.100211)
(0.000127342 -1.6861e-05 0.10021)
(0.000104179 -1.69895e-05 0.100212)
(8.08058e-05 -1.70623e-05 0.100217)
(5.72521e-05 -1.70828e-05 0.100221)
(3.35667e-05 -1.70536e-05 0.100224)
(9.81225e-06 -1.69768e-05 0.100224)
(-1.39405e-05 -1.68528e-05 0.100222)
(-3.76188e-05 -1.66811e-05 0.100217)
(-6.11538e-05 -1.64606e-05 0.10021)
(-8.4487e-05 -1.61897e-05 0.100203)
(-0.000107576 -1.58668e-05 0.100196)
(-0.000130401 -1.54914e-05 0.100193)
(-0.000152962 -1.50644e-05 0.100196)
(-0.000175279 -1.45898e-05 0.100205)
(-0.000197369 -1.40746e-05 0.100222)
(-0.000219206 -1.35256e-05 0.100248)
(-0.000240597 -1.29437e-05 0.100278)
(-0.000260779 -1.23023e-05 0.100297)
(-0.000277098 -1.1493e-05 0.100231)
(-0.000265854 -9.71863e-06 0.0995406)
(-0.000191015 -5.61966e-06 0.0935516)
(0.000189783 -2.18236e-05 0.0934605)
(0.000263904 -3.4626e-05 0.0994978)
(0.00027531 -3.95167e-05 0.10021)
(0.000258906 -4.11751e-05 0.100285)
(0.000238535 -4.21642e-05 0.100272)
(0.000216865 -4.28659e-05 0.100246)
(0.000194695 -4.34032e-05 0.100225)
(0.000172252 -4.38161e-05 0.100211)
(0.00014959 -4.41201e-05 0.100204)
(0.000126718 -4.43274e-05 0.100204)
(0.000103635 -4.44512e-05 0.100208)
(8.03521e-05 -4.45075e-05 0.100213)
(5.69005e-05 -4.45106e-05 0.100219)
(3.33265e-05 -4.44736e-05 0.100222)
(9.68908e-06 -4.4405e-05 0.100223)
(-1.39445e-05 -4.43094e-05 0.100221)
(-3.75058e-05 -4.41871e-05 0.100215)
(-6.09299e-05 -4.40334e-05 0.100207)
(-8.41616e-05 -4.38402e-05 0.100199)
(-0.000107161 -4.3595e-05 0.100191)
(-0.000129906 -4.32828e-05 0.100187)
(-0.000152398 -4.28889e-05 0.100188)
(-0.00017465 -4.24002e-05 0.100197)
(-0.000196673 -4.18078e-05 0.100215)
(-0.000218426 -4.11013e-05 0.100241)
(-0.000239705 -4.02509e-05 0.100271)
(-0.000259731 -3.91507e-05 0.10029)
(-0.000275852 -3.74565e-05 0.100221)
(-0.00026423 -3.26929e-05 0.0995134)
(-0.00018982 -2.03055e-05 0.0934734)
(0.000187238 -3.58794e-05 0.093301)
(0.000260465 -5.67206e-05 0.0994441)
(0.000272613 -6.46443e-05 0.100194)
(0.00025659 -6.72031e-05 0.100276)
(0.000236514 -6.86674e-05 0.100264)
(0.000215057 -6.96623e-05 0.100238)
(0.000193044 -7.03971e-05 0.100216)
(0.000170734 -7.09437e-05 0.100202)
(0.000148206 -7.13334e-05 0.100197)
(0.000125482 -7.15893e-05 0.100198)
(0.000102571 -7.17371e-05 0.100204)
(7.9488e-05 -7.18017e-05 0.100212)
(5.62615e-05 -7.18091e-05 0.100219)
(3.29322e-05 -7.17787e-05 0.100224)
(9.5527e-06 -7.17255e-05 0.100225)
(-1.382e-05 -7.1657e-05 0.100223)
(-3.71259e-05 -7.15739e-05 0.100216)
(-6.03091e-05 -7.147e-05 0.100207)
(-8.33219e-05 -7.13311e-05 0.100196)
(-0.000106129 -7.11363e-05 0.100185)
(-0.00012871 -7.08587e-05 0.100178)
(-0.00015106 -7.04687e-05 0.100178)
(-0.000173185 -6.99391e-05 0.100185)
(-0.000195077 -6.92444e-05 0.100203)
(-0.000216675 -6.83564e-05 0.100229)
(-0.000237739 -6.72109e-05 0.100261)
(-0.000257469 -6.56172e-05 0.100279)
(-0.000273209 -6.29828e-05 0.100204)
(-0.000260849 -5.51068e-05 0.0994589)
(-0.000187335 -3.45302e-05 0.0933136)
(0.000183471 -4.91799e-05 0.0930512)
(0.000255318 -7.79136e-05 0.0993583)
(0.000268576 -8.90889e-05 0.100169)
(0.000253114 -9.26393e-05 0.100261)
(0.000233475 -9.46373e-05 0.100251)
(0.000212329 -9.59714e-05 0.100226)
(0.000190545 -9.69482e-05 0.100204)
(0.000168431 -9.76757e-05 0.100191)
(0.000146104 -9.82009e-05 0.100188)
(0.000123609 -9.85575e-05 0.100192)
(0.000100966 -9.8778e-05 0.100201)
(7.81956e-05 -9.88969e-05 0.100212)
(5.53209e-05 -9.89442e-05 0.100222)
(3.23752e-05 -9.89459e-05 0.100229)
(9.39685e-06 -9.89192e-05 0.100232)
(-1.35685e-05 -9.88744e-05 0.100229)
(-3.64768e-05 -9.8813e-05 0.100221)
(-5.9285e-05 -9.87276e-05 0.100208)
(-8.1957e-05 -9.86019e-05 0.100194)
(-0.000104466 -9.84089e-05 0.100179)
(-0.000126794 -9.81139e-05 0.100168)
(-0.000148931 -9.76767e-05 0.100164)
(-0.000170868 -9.70561e-05 0.100169)
(-0.000192573 -9.6213e-05 0.100185)
(-0.000213947 -9.50978e-05 0.100212)
(-0.000234701 -9.3608e-05 0.100244)
(-0.000253993 -9.1455e-05 0.100261)
(-0.000269175 -8.77803e-05 0.100176)
(-0.00025572 -7.65664e-05 0.0993718)
(-0.00018361 -4.79618e-05 0.0930635)
(0.000178556 -6.13748e-05 0.0926972)
(0.000248472 -9.77968e-05 0.0992319)
(0.000263203 -0.00011257 0.10013)
(0.000248468 -0.000117256 0.100239)
(0.000229396 -0.000119884 0.100232)
(0.000208651 -0.000121632 0.100208)
(0.000187161 -0.00012292 0.100187)
(0.000165305 -0.000123901 0.100177)
(0.000143248 -0.000124635 0.100178)
(0.000121066 -0.000125166 0.100187)
(9.87947e-05 -0.000125531 0.100201)
(7.64553e-05 -0.000125767 0.100217)
(5.4066e-05 -0.000125905 0.100231)
(3.16453e-05 -0.000125973 0.10024)
(9.21753e-06 -0.000125988 0.100244)
(-1.31923e-05 -0.000125962 0.10024)
(-3.5556e-05 -0.000125897 0.10023)
(-5.78497e-05 -0.000125788 0.100215)
(-8.00532e-05 -0.000125617 0.100195)
(-0.000102151 -0.000125357 0.100175)
(-0.000124133 -0.000124971 0.100158)
(-0.000145981 -0.000124412 0.100148)
(-0.00016767 -0.00012363 0.100148)
(-0.000189135 -0.000122569 0.100162)
(-0.000210225 -0.000121159 0.100187)
(-0.000230583 -0.000119249 0.100219)
(-0.00024931 -0.000116432 0.100234)
(-0.000263766 -0.000111559 0.100134)
(-0.000248863 -9.66448e-05 0.0992437)
(-0.000178725 -6.02276e-05 0.0927091)
(0.000172616 -7.20701e-05 0.0922194)
(0.000239955 -0.000115916 0.0990528)
(0.000256504 -0.000134808 0.100072)
(0.000242635 -0.000140848 0.100205)
(0.00022424 -0.000144252 0.100204)
(0.000203974 -0.000146515 0.100183)
(0.000182837 -0.000148211 0.100166)
(0.000161301 -0.000149538 0.100162)
(0.000139592 -0.000150579 0.100169)
(0.000117819 -0.00015138 0.100185)
(9.60322e-05 -0.000151982 0.100206)
(7.42537e-05 -0.000152413 0.100228)
(5.24893e-05 -0.000152706 0.100246)
(3.07405e-05 -0.00015288 0.100258)
(9.01035e-06 -0.000152955 0.100263)
(-1.26942e-05 -0.000152942 0.100259)
(-3.43665e-05 -0.000152844 0.100247)
(-5.60012e-05 -0.000152658 0.100227)
(-7.75993e-05 -0.00015237 0.100203)
(-9.91635e-05 -0.000151956 0.100176)
(-0.000120691 -0.000151384 0.10015)
(-0.000142167 -0.000150607 0.100132)
(-0.000163542 -0.000149571 0.100124)
(-0.000184717 -0.000148206 0.100131)
(-0.000205475 -0.000146412 0.100153)
(-0.000225366 -0.000143981 0.100182)
(-0.00024342 -0.000140349 0.100193)
(-0.000257015 -0.000134039 0.100071)
(-0.000240327 -0.000114875 0.0990622)
(-0.000172823 -7.09036e-05 0.0922308)
(0.000165857 -8.08153e-05 0.091593)
(0.000229827 -0.000131736 0.0988034)
(0.000248493 -0.000155503 0.0999883)
(0.000235586 -0.00016321 0.100154)
(0.000217961 -0.000167578 0.100163)
(0.000198243 -0.000170514 0.100149)
(0.000177508 -0.000172743 0.100141)
(0.000156359 -0.000174538 0.100146)
(0.000135089 -0.000176004 0.100164)
(0.000113839 -0.000177194 0.10019)
(9.2671e-05 -0.000178137 0.100219)
(7.15966e-05 -0.000178858 0.100246)
(5.06022e-05 -0.000179372 0.100269)
(2.96685e-05 -0.000179699 0.100284)
(8.77672e-06 -0.000179852 0.10029)
(-1.20839e-05 -0.000179846 0.100286)
(-3.29231e-05 -0.000179683 0.100272)
(-5.37562e-05 -0.000179363 0.100249)
(-7.46038e-05 -0.000178877 0.100218)
(-9.54926e-05 -0.00017821 0.100184)
(-0.00011644 -0.000177338 0.100148)
(-0.000137436 -0.000176227 0.100118)
(-0.000158421 -0.000174823 0.100099)
(-0.000179254 -0.000173044 0.100095)
(-0.000199647 -0.000170752 0.100108)
(-0.000219017 -0.000167652 0.10013)
(-0.000236316 -0.000163014 0.100132)
(-0.000248963 -0.000154935 0.09998)
(-0.000230207 -0.000130716 0.0988094)
(-0.000166142 -7.95143e-05 0.0916038)
(0.000158688 -8.70364e-05 0.0907908)
(0.000218202 -0.000144602 0.0984551)
(0.000239188 -0.000174321 0.0998659)
(0.000227301 -0.00018415 0.100079)
(0.000210496 -0.000189744 0.100107)
(0.00019136 -0.000193546 0.100107)
(0.000171087 -0.00019646 0.100114)
(0.000150413 -0.000198865 0.100134)
(0.000129704 -0.000200898 0.100165)
(0.000109128 -0.00020261 0.100203)
(8.87387e-05 -0.000204016 0.100241)
(6.8525e-05 -0.000205119 0.100276)
(4.84465e-05 -0.000205925 0.100303)
(2.84567e-05 -0.000206444 0.100321)
(8.52253e-06 -0.000206695 0.100327)
(-1.13792e-05 -0.000206688 0.100323)
(-3.12659e-05 -0.000206432 0.100308)
(-5.1163e-05 -0.000205925 0.100281)
(-7.11124e-05 -0.00020516 0.100246)
(-9.11663e-05 -0.000204132 0.100203)
(-0.000111373 -0.000202834 0.100157)
(-0.000131745 -0.000201252 0.100113)
(-0.000152228 -0.000199345 0.100077)
(-0.00017265 -0.000197023 0.100056)
(-0.000192644 -0.000194103 0.100053)
(-0.000211479 -0.00019016 0.10006)
(-0.000227995 -0.000184259 0.100044)
(-0.000239657 -0.000173936 0.0998476)
(-0.000218659 -0.000143526 0.098456)
(-0.000159136 -8.54698e-05 0.0908007)
(0.00015182 -9.04095e-05 0.0897564)
(0.000205115 -0.000153755 0.0979538)
(0.00022849 -0.000190891 0.0996837)
(0.000217643 -0.000203414 0.0999713)
(0.000201716 -0.00021061 0.100033)
(0.00018321 -0.000215506 0.100059)
(0.000163474 -0.000219287 0.100089)
(0.000143398 -0.000222466 0.100129)
(0.000123428 -0.000225226 0.100178)
(0.000103725 -0.000227604 0.100229)
(8.43105e-05 -0.000229594 0.100277)
(6.51282e-05 -0.000231168 0.100317)
(4.60992e-05 -0.000232323 0.100348)
(2.71561e-05 -0.000233068 0.100367)
(8.25889e-06 -0.000233425 0.100375)
(-1.06094e-05 -0.000233416 0.10037)
(-2.94602e-05 -0.000233044 0.100354)
(-4.8314e-05 -0.000232307 0.100326)
(-6.72217e-05 -0.000231195 0.100286)
(-8.62618e-05 -0.000229704 0.100237)
(-0.000105523 -0.000227849 0.10018)
(-0.000125069 -0.000225644 0.10012)
(-0.000144877 -0.000223077 0.100064)
(-0.00016478 -0.000220062 0.100019)
(-0.000184322 -0.000216358 0.0999896)
(-0.000202611 -0.000211373 0.0999694)
(-0.000218322 -0.000203859 0.0999203)
(-0.000229014 -0.000190707 0.0996517)
(-0.000205755 -0.000152579 0.097947)
(-0.000152555 -8.84527e-05 0.0897644)
(0.000145029 -9.05156e-05 0.0883832)
(0.000190252 -0.000158435 0.0972019)
(0.000216028 -0.000204337 0.0994049)
(0.000206367 -0.00022043 0.0998189)
(0.000191381 -0.000229775 0.0999396)
(0.000173557 -0.000236083 0.100006)
(0.000154469 -0.00024097 0.100068)
(0.000135199 -0.000245135 0.100135)
(0.000116238 -0.000248811 0.100203)
(9.76935e-05 -0.000252017 0.100268)
(7.94974e-05 -0.0002547 0.100324)
(6.15265e-05 -0.000256818 0.100369)
(4.36627e-05 -0.000258355 0.100401)
(2.5831e-05 -0.000259342 0.100421)
(8.00241e-06 -0.000259812 0.100429)
(-9.81167e-06 -0.000259795 0.100425)
(-2.7589e-05 -0.000259299 0.100409)
(-4.53288e-05 -0.000258309 0.10038)
(-6.30666e-05 -0.000256802 0.100339)
(-8.08958e-05 -0.000254769 0.100284)
(-9.89522e-05 -0.000252228 0.100218)
(-0.000117369 -0.00024923 0.100143)
(-0.000136223 -0.000245807 0.100065)
(-0.0001554 -0.0002419 0.0999898)
(-0.000174399 -0.000237197 0.0999235)
(-0.000192127 -0.000230902 0.0998588)
(-0.000207019 -0.000221265 0.0997482)
(-0.000216663 -0.00020443 0.0993545)
(-0.000191206 -0.000157205 0.0971833)
(-0.000146214 -8.80925e-05 0.0883869)
(0.000137964 -9.01345e-05 0.0865475)
(0.000173917 -0.000154291 0.0960151)
(0.000201401 -0.000212851 0.0989598)
(0.000193006 -0.000234456 0.0996041)
(0.000178851 -0.000246407 0.0998241)
(0.000161685 -0.000254457 0.0999469)
(0.000143466 -0.000260751 0.100049)
(0.000125423 -0.000266199 0.100146)
(0.00010796 -0.000271051 0.100235)
(9.10097e-05 -0.000275267 0.100312)
(7.43567e-05 -0.000278753 0.100374)
(5.78046e-05 -0.000281455 0.100421)
(4.12119e-05 -0.000283397 0.100454)
(2.45232e-05 -0.000284626 0.100474)
(7.7626e-06 -0.000285212 0.100482)
(-9.00937e-06 -0.000285188 0.100479)
(-2.57155e-05 -0.000284566 0.100464)
(-4.22957e-05 -0.000283315 0.100436)
(-5.87458e-05 -0.000281392 0.100395)
(-7.51381e-05 -0.000278756 0.100338)
(-9.16349e-05 -0.00027541 0.100265)
(-0.000108458 -0.000271413 0.100177)
(-0.000125836 -0.000266864 0.100075)
(-0.000143841 -0.000261762 0.0999663)
(-0.000162071 -0.000255786 0.0998544)
(-0.000179281 -0.00024789 0.0997273)
(-0.000193516 -0.000235752 0.0995123)
(-0.000202117 -0.000213347 0.098887)
(-0.000175256 -0.000153159 0.09598)
(-0.000139762 -8.73748e-05 0.0865437)
(0.000144027 -5.64457e-05 0.0839991)
(0.000154051 -0.000143576 0.0939982)
(0.000182329 -0.000219976 0.0981963)
(0.000175991 -0.000244518 0.0992784)
(0.000161964 -0.000258873 0.0996392)
(0.00014531 -0.000268988 0.0998335)
(0.000128691 -0.000277163 0.0999879)
(0.000112888 -0.000284316 0.100122)
(9.78775e-05 -0.00029061 0.100234)
(8.32635e-05 -0.000295964 0.100325)
(6.86614e-05 -0.000300282 0.100394)
(5.38203e-05 -0.000303573 0.100445)
(3.86504e-05 -0.000305907 0.100479)
(2.31832e-05 -0.000307385 0.100499)
(7.52023e-06 -0.000308084 0.100508)
(-8.18772e-06 -0.00030806 0.100505)
(-2.37838e-05 -0.000307311 0.10049)
(-3.91269e-05 -0.000305805 0.100464)
(-5.41234e-05 -0.000303469 0.100423)
(-6.87628e-05 -0.000300226 0.100365)
(-8.3165e-05 -0.000296023 0.100286)
(-9.76029e-05 -0.000290884 0.100184)
(-0.000112493 -0.000284914 0.100058)
(-0.000128256 -0.000278179 0.0999092)
(-0.000144918 -0.000270458 0.0997395)
(-0.000161721 -0.000260686 0.0995331)
(-0.000176017 -0.000246332 0.0991688)
(-0.000182832 -0.000221083 0.0981006)
(-0.000155572 -0.0001428 0.0939438)
(-0.000146522 -5.34482e-05 0.0839841)