/*--------------------------------*- C++ -*----------------------------------*\
| =========                 |                                                 |
| \\      /  F ield         | OpenFOAM: The Open Source CFD Toolbox           |
|  \\    /   O peration     | Version:  2312                                  |
|   \\  /    A nd           | Website:  www.openfoam.com                      |
|    \\/     M anipulation  |                                                 |
\*---------------------------------------------------------------------------*/
FoamFile
{
    version     2.0;
    format      ascii;
    arch        "LSB;label=32;scalar=64";
    class       volScalarField;
    location    "300";
    object      alphat;
}
// * * * * * * * * * * * * * * * * * * * * * * * * * * * * * * * * * * * * * //

dimensions      [1 -1 -1 0 0 0 0];

internalField   nonuniform List<scalar> 
27000
(
0.00395214
0.0067067
0.00936356
0.0117393
0.0140471
0.0162009
0.0181558
0.0198067
0.0212265
0.0224388
0.0234386
0.0242302
0.024821
0.0252137
0.0254097
0.0254096
0.0252134
0.0248204
0.0242294
0.0234376
0.022438
0.0212256
0.0198058
0.018155
0.0162002
0.0140467
0.011739
0.00936358
0.0067069
0.00395231
0.00575267
0.00128197
0.00515994
0.00907983
0.0131663
0.0170473
0.020713
0.0241218
0.0272098
0.0299568
0.0323451
0.0343342
0.0358716
0.0369181
0.0374479
0.0374483
0.0369192
0.0358734
0.0343364
0.0323474
0.0299587
0.0272116
0.0241235
0.0207146
0.0170488
0.0131675
0.00908059
0.00516058
0.00128217
0.00575293
0.00922753
0.00714341
0.0145109
0.0261378
0.0368751
0.0462386
0.0548003
0.0628304
0.0701476
0.0766161
0.082164
0.0867233
0.0902149
0.0925772
0.0937687
0.0937697
0.0925799
0.0902189
0.0867283
0.0821682
0.0766178
0.0701474
0.0628289
0.0547985
0.0462368
0.0368731
0.0261343
0.0145084
0.00714389
0.0092277
0.012155
0.0108438
0.0260478
0.0526433
0.0782779
0.0963843
0.109862
0.120908
0.13024
0.138017
0.14441
0.149501
0.15331
0.155847
0.157116
0.157116
0.155849
0.153312
0.149502
0.144409
0.138013
0.130233
0.120899
0.109854
0.0963784
0.078272
0.0526346
0.0260419
0.0108443
0.0121551
0.0149188
0.0144797
0.0368704
0.0762059
0.113347
0.139205
0.15603
0.167832
0.176755
0.183269
0.188287
0.192195
0.195061
0.196947
0.197884
0.197884
0.196948
0.195061
0.192194
0.188285
0.18327
0.176751
0.167825
0.156023
0.139199
0.113338
0.0761931
0.0368632
0.01448
0.0149189
0.0174789
0.0184196
0.0477041
0.0952478
0.137855
0.167245
0.185438
0.196817
0.204333
0.209441
0.213024
0.215601
0.21741
0.21857
0.219138
0.219138
0.218569
0.217409
0.215599
0.213021
0.209437
0.204326
0.196809
0.18543
0.167234
0.137842
0.0952336
0.0476968
0.0184199
0.0174788
0.0198109
0.0225664
0.0585937
0.111506
0.15576
0.185119
0.202857
0.213223
0.219369
0.22312
0.225487
0.227028
0.228033
0.228647
0.228941
0.22894
0.228646
0.228031
0.227025
0.225483
0.223115
0.219362
0.213215
0.202848
0.185108
0.155746
0.111493
0.0585881
0.0225671
0.0198109
0.0218951
0.0267666
0.0691476
0.1256
0.169849
0.19734
0.213364
0.222264
0.227112
0.229752
0.23121
0.232034
0.232508
0.232772
0.232891
0.232891
0.232771
0.232506
0.232031
0.231206
0.229746
0.227105
0.222256
0.213354
0.197328
0.169834
0.125588
0.0691439
0.0267675
0.0218951
0.0237084
0.0308927
0.0790113
0.137683
0.180978
0.206056
0.21998
0.227296
0.230969
0.232737
0.233552
0.233911
0.234062
0.234122
0.234142
0.234142
0.23412
0.23406
0.233908
0.233547
0.232731
0.230962
0.227288
0.219971
0.206045
0.180966
0.137675
0.0790097
0.0308937
0.0237084
0.025263
0.034784
0.087954
0.147805
0.188834
0.212103
0.224212
0.23014
0.232843
0.233955
0.234333
0.234406
0.234375
0.234328
0.234299
0.234298
0.234327
0.234373
0.234403
0.234329
0.233949
0.232837
0.230133
0.224204
0.212096
0.188827
0.147801
0.0879546
0.0347851
0.0252631
0.0265591
0.0382866
0.0957606
0.156281
0.195376
0.216548
0.227015
0.231788
0.233735
0.234375
0.23447
0.234377
0.234252
0.234155
0.234105
0.234105
0.234154
0.23425
0.234374
0.234466
0.234371
0.23373
0.231783
0.22701
0.216543
0.195373
0.156281
0.0957632
0.0382878
0.0265591
0.027596
0.0412646
0.102216
0.163045
0.200476
0.21983
0.228918
0.232774
0.234156
0.23447
0.234386
0.234204
0.234038
0.233924
0.233868
0.233868
0.233923
0.234036
0.234201
0.234384
0.234467
0.234153
0.232771
0.228915
0.219828
0.200475
0.163046
0.10222
0.041266
0.027596
0.0283737
0.0436034
0.107171
0.168119
0.204193
0.222141
0.230185
0.233368
0.234353
0.234453
0.234264
0.234037
0.233857
0.233742
0.233687
0.233687
0.233741
0.233856
0.234035
0.234262
0.234451
0.234351
0.233366
0.230184
0.222141
0.204194
0.16812
0.107177
0.043605
0.0283737
0.0288924
0.0452132
0.110526
0.171512
0.206616
0.22361
0.230961
0.233707
0.234443
0.234414
0.234168
0.233921
0.233739
0.233628
0.233577
0.233577
0.233628
0.233739
0.233921
0.234167
0.234414
0.234443
0.233706
0.230962
0.223611
0.206618
0.171513
0.110533
0.045215
0.0288923
0.0291521
0.0460325
0.112214
0.1732
0.207806
0.22432
0.231328
0.23386
0.234477
0.234389
0.234118
0.233864
0.233683
0.233575
0.233526
0.233526
0.233575
0.233683
0.233864
0.234118
0.234389
0.234478
0.233861
0.23133
0.224323
0.207809
0.173203
0.112222
0.0460346
0.0291519
0.0291527
0.046031
0.11221
0.173194
0.207802
0.224318
0.231326
0.233858
0.234476
0.234388
0.234117
0.233863
0.233682
0.233574
0.233524
0.233524
0.233574
0.233682
0.233864
0.234117
0.234389
0.234478
0.233861
0.231329
0.224322
0.207807
0.1732
0.112219
0.0460334
0.0291523
0.0288942
0.0452088
0.110512
0.171494
0.206604
0.223603
0.230956
0.233703
0.23444
0.234412
0.234165
0.233919
0.233736
0.233625
0.233573
0.233573
0.233625
0.233736
0.233919
0.234166
0.234413
0.234441
0.233705
0.23096
0.223608
0.206612
0.171503
0.110523
0.0452115
0.0288936
0.0283767
0.0435966
0.10715
0.168093
0.204178
0.222133
0.23018
0.233364
0.23435
0.23445
0.234261
0.234033
0.233852
0.233736
0.233681
0.233681
0.233736
0.233852
0.234033
0.23426
0.23445
0.234351
0.233365
0.230183
0.222138
0.204187
0.168105
0.107162
0.0435994
0.0283758
0.0275998
0.041256
0.102189
0.163019
0.200461
0.219823
0.228915
0.232772
0.234155
0.234469
0.234384
0.2342
0.234032
0.233917
0.23386
0.23386
0.233917
0.234031
0.234198
0.234382
0.234467
0.234154
0.232772
0.228916
0.219827
0.20047
0.163032
0.102202
0.0412589
0.0275988
0.0265637
0.0382771
0.0957318
0.156257
0.195365
0.216545
0.227016
0.231791
0.233738
0.234377
0.234469
0.234374
0.234246
0.234147
0.234096
0.234095
0.234146
0.234245
0.234371
0.234466
0.234373
0.233734
0.231788
0.227015
0.216547
0.195372
0.156269
0.0957434
0.0382797
0.0265625
0.0252681
0.0347745
0.0879265
0.147785
0.188828
0.212107
0.22422
0.230149
0.232851
0.23396
0.234335
0.234404
0.234369
0.234319
0.234288
0.234287
0.234318
0.234367
0.234401
0.23433
0.233954
0.232844
0.230142
0.224214
0.212105
0.188832
0.147794
0.0879358
0.0347767
0.0252668
0.0237137
0.0308841
0.0789886
0.137672
0.180974
0.206067
0.219995
0.227312
0.230982
0.232746
0.233556
0.233909
0.234055
0.234111
0.234129
0.234129
0.23411
0.234053
0.233906
0.23355
0.232738
0.230972
0.227301
0.219986
0.20606
0.180973
0.137676
0.0789944
0.0308856
0.0237124
0.0219001
0.0267603
0.0691342
0.125602
0.169861
0.197362
0.213386
0.222285
0.227128
0.229764
0.231215
0.232032
0.2325
0.23276
0.232877
0.232877
0.23276
0.232499
0.23203
0.231209
0.229755
0.227116
0.222271
0.213372
0.197349
0.169852
0.125599
0.0691354
0.0267609
0.0218989
0.0198145
0.0225634
0.0585911
0.111522
0.155787
0.18515
0.202883
0.213245
0.219386
0.223131
0.22549
0.227023
0.228021
0.228632
0.228923
0.228924
0.228633
0.228022
0.227022
0.225486
0.223123
0.219374
0.213229
0.202866
0.185132
0.155773
0.111513
0.0585875
0.0225629
0.0198138
0.0174817
0.0184185
0.0477108
0.0952718
0.137885
0.167282
0.185463
0.196837
0.204349
0.209448
0.213023
0.21559
0.217392
0.218547
0.219113
0.219114
0.21855
0.217395
0.215592
0.213022
0.209444
0.204338
0.196822
0.185444
0.167258
0.137868
0.0952582
0.047704
0.0184174
0.0174812
0.0149208
0.0144798
0.0368824
0.0762305
0.113368
0.139223
0.156047
0.167852
0.176766
0.183266
0.188273
0.192171
0.19503
0.19691
0.197844
0.197845
0.196914
0.195036
0.192177
0.188278
0.183271
0.176762
0.16784
0.156031
0.139206
0.113353
0.0762163
0.0368743
0.0144786
0.0149205
0.0121559
0.0108442
0.0260611
0.0526605
0.0782909
0.0963935
0.109869
0.120911
0.130235
0.138001
0.14438
0.149458
0.153257
0.155788
0.157054
0.157056
0.155795
0.153267
0.149469
0.144388
0.138004
0.130232
0.120903
0.109859
0.0963822
0.0782796
0.0526498
0.0260535
0.0108432
0.012156
0.00922755
0.00714181
0.0145177
0.0261472
0.0368819
0.046242
0.054799
0.0628217
0.0701305
0.0765899
0.0821265
0.0866758
0.0901594
0.0925164
0.0937057
0.0937078
0.0925222
0.0901685
0.0866866
0.0821364
0.0765959
0.0701332
0.0628215
0.0547965
0.0462378
0.0368774
0.0261424
0.0145147
0.00714198
0.00922777
0.00575245
0.00128173
0.00516044
0.00908071
0.0131668
0.0170468
0.0207108
0.0241179
0.0272042
0.0299491
0.0323335
0.0343198
0.0358557
0.036901
0.0374304
0.0374309
0.0369025
0.0358579
0.0343225
0.0323359
0.0299505
0.0272051
0.0241185
0.020711
0.0170465
0.0131665
0.00908044
0.00516063
0.00128173
0.00575284
0.00395192
0.00670637
0.00936351
0.0117399
0.0140486
0.0162031
0.0181588
0.0198103
0.0212306
0.0224436
0.0234447
0.0242369
0.0248279
0.0252207
0.0254167
0.0254165
0.0252201
0.0248269
0.0242355
0.0234432
0.0224422
0.0212293
0.019809
0.0181576
0.0162021
0.0140478
0.0117395
0.00936342
0.00670645
0.00395207
0.0035587
0.00608443
0.00869237
0.0110707
0.0134504
0.0156992
0.0177703
0.0195423
0.0210769
0.0223999
0.0235218
0.0244324
0.0251189
0.0255779
0.0258077
0.0258079
0.0255783
0.0251197
0.0244335
0.0235231
0.0224011
0.0210781
0.0195436
0.017772
0.0157007
0.0134513
0.0110711
0.00869218
0.00608396
0.00355828
0.0051175
0.00160832
0.0074507
0.0110223
0.0146057
0.0176192
0.0202082
0.0226104
0.0246989
0.0264811
0.0279517
0.0291171
0.0299897
0.0305723
0.030864
0.0308637
0.0305714
0.0299884
0.0291154
0.0279503
0.0264805
0.0246989
0.0226105
0.020208
0.0176172
0.0146029
0.0110193
0.00744716
0.00160746
0.00511656
0.00868334
0.0101882
0.0132312
0.0166995
0.0218562
0.0272968
0.0323201
0.0367087
0.0407102
0.0442823
0.0473173
0.0497717
0.0516311
0.0528674
0.0534853
0.0534841
0.052864
0.0516252
0.0497605
0.0473054
0.0442793
0.0407117
0.036713
0.032325
0.027302
0.02186
0.0167024
0.0132316
0.0101861
0.00868261
0.0115708
0.0134085
0.0179041
0.0256821
0.0359999
0.0466457
0.0560794
0.0642748
0.0715435
0.0780711
0.0836905
0.0882327
0.0916453
0.0939039
0.0950252
0.0950202
0.0938892
0.0916213
0.0882015
0.0836587
0.078047
0.0715342
0.0642734
0.0560841
0.0466543
0.0360103
0.0256891
0.017906
0.0134038
0.0115699
0.0144294
0.0158885
0.0227901
0.0359156
0.0544991
0.0739524
0.0900477
0.102551
0.112721
0.121476
0.128671
0.134256
0.138337
0.14092
0.142176
0.142172
0.140908
0.138315
0.13423
0.128647
0.121457
0.112717
0.10256
0.0900676
0.073978
0.0545218
0.0359333
0.022799
0.0158845
0.014429
0.0171464
0.0181093
0.0286024
0.0470939
0.0735
0.10012
0.122268
0.138193
0.149745
0.158568
0.165383
0.170514
0.17418
0.176513
0.177643
0.177641
0.176508
0.174171
0.170506
0.16538
0.158574
0.149762
0.138218
0.122302
0.100159
0.0735367
0.0471153
0.0286137
0.018106
0.0171463
0.0196592
0.0205468
0.0339531
0.058296
0.0909801
0.122512
0.146922
0.16421
0.17619
0.184632
0.19069
0.195018
0.198002
0.199871
0.20077
0.200769
0.199871
0.198002
0.195021
0.190698
0.184648
0.176213
0.164238
0.146956
0.122554
0.0910186
0.0583174
0.0339629
0.0205475
0.0196594
0.021963
0.0230288
0.0390359
0.068855
0.106042
0.139815
0.164831
0.18217
0.193813
0.201591
0.206819
0.210334
0.212642
0.214042
0.214703
0.214703
0.214044
0.212646
0.210341
0.206831
0.201608
0.193835
0.182195
0.16486
0.139847
0.106074
0.0688756
0.0390431
0.0230293
0.0219632
0.0240618
0.0253418
0.0439117
0.0787777
0.119005
0.15323
0.177822
0.194431
0.20526
0.212191
0.216595
0.219377
0.2211
0.222099
0.222557
0.222558
0.222102
0.221106
0.219386
0.216607
0.212207
0.205279
0.194452
0.177844
0.153254
0.119029
0.0787948
0.0439157
0.0253414
0.0240621
0.0259008
0.0274228
0.0483408
0.0874676
0.130197
0.163808
0.187342
0.202835
0.212636
0.218664
0.222298
0.224453
0.225701
0.226383
0.226683
0.226684
0.226386
0.225707
0.224461
0.222309
0.218678
0.212651
0.20285
0.187357
0.163822
0.130209
0.0874799
0.0483413
0.0274213
0.0259011
0.0274589
0.0292373
0.0521991
0.0946517
0.138573
0.171791
0.194252
0.208594
0.217373
0.222557
0.225521
0.227164
0.228044
0.228487
0.228671
0.228672
0.22849
0.228048
0.227171
0.225529
0.222566
0.217382
0.208602
0.194259
0.171795
0.138577
0.0946603
0.0521962
0.0292346
0.0274593
0.0287215
0.0307488
0.0554228
0.100415
0.144939
0.177666
0.199172
0.212502
0.220393
0.224867
0.227289
0.228538
0.229146
0.22942
0.229522
0.229523
0.229421
0.229149
0.228542
0.227294
0.224871
0.220398
0.212504
0.199172
0.177664
0.144938
0.10042
0.0554174
0.030745
0.0287221
0.0296775
0.0319219
0.0579401
0.104809
0.149615
0.181841
0.202555
0.215079
0.222279
0.226208
0.228229
0.229195
0.229615
0.229775
0.229824
0.229824
0.229775
0.229616
0.229196
0.22823
0.226208
0.222277
0.215076
0.202549
0.181833
0.149608
0.104808
0.0579319
0.0319172
0.0296784
0.0303189
0.0327253
0.0596699
0.107797
0.152717
0.184542
0.204686
0.216651
0.223378
0.226944
0.228702
0.229487
0.22979
0.229881
0.229898
0.229898
0.22988
0.229789
0.229485
0.228699
0.226939
0.223372
0.216643
0.204676
0.184529
0.152705
0.107791
0.0596596
0.0327201
0.03032
0.0306404
0.0331373
0.060556
0.109309
0.154269
0.185874
0.205721
0.217399
0.223887
0.227271
0.228899
0.229596
0.229844
0.229902
0.229904
0.229904
0.2299
0.22984
0.229592
0.228892
0.227263
0.223877
0.217387
0.205707
0.185858
0.154253
0.109297
0.0605448
0.0331327
0.0306418
0.0306398
0.0331387
0.0605603
0.10932
0.154278
0.185881
0.205726
0.217403
0.223891
0.227274
0.228901
0.229599
0.229846
0.229905
0.229907
0.229906
0.229902
0.229842
0.229593
0.228893
0.227264
0.223879
0.217389
0.205709
0.185862
0.154257
0.109302
0.0605465
0.0331333
0.0306416
0.030317
0.0327297
0.0596829
0.107831
0.152744
0.184561
0.2047
0.216662
0.223388
0.226952
0.22871
0.229495
0.229798
0.229889
0.229905
0.229905
0.229886
0.229793
0.229488
0.228701
0.226942
0.223375
0.216647
0.204682
0.184539
0.152719
0.107807
0.059665
0.0327224
0.0303192
0.0296744
0.0319289
0.0579611
0.104864
0.149658
0.181869
0.202575
0.215095
0.222291
0.22622
0.228241
0.229207
0.229627
0.229788
0.229836
0.229835
0.229785
0.229623
0.229201
0.228233
0.226211
0.22228
0.215081
0.202558
0.181847
0.14963
0.104833
0.0579407
0.0319208
0.0296771
0.0287173
0.0307578
0.0554504
0.100492
0.144994
0.177699
0.199192
0.212517
0.220406
0.224879
0.227302
0.228553
0.229162
0.229437
0.229539
0.229538
0.229434
0.229158
0.228548
0.227297
0.224872
0.220399
0.212507
0.19918
0.177679
0.144966
0.100457
0.0554293
0.0307496
0.0287203
0.0274537
0.0292474
0.0522295
0.0947408
0.138632
0.171821
0.194268
0.208604
0.217381
0.222567
0.225534
0.22718
0.228063
0.228509
0.228693
0.228692
0.228507
0.228061
0.227178
0.225531
0.222565
0.217379
0.208601
0.194262
0.171808
0.138606
0.0947036
0.0522089
0.0292396
0.027457
0.0258949
0.0274331
0.0483713
0.0875573
0.130252
0.163831
0.187348
0.202835
0.212638
0.21867
0.22231
0.224471
0.225724
0.226409
0.22671
0.226709
0.226407
0.225722
0.22447
0.222311
0.218673
0.212642
0.202841
0.187352
0.163827
0.130234
0.0875236
0.0483546
0.0274264
0.0258984
0.0240555
0.0253515
0.0439382
0.0788548
0.11906
0.153238
0.177811
0.194419
0.205253
0.212192
0.216605
0.219397
0.221127
0.22213
0.22259
0.222589
0.222128
0.221125
0.219396
0.216608
0.212199
0.205264
0.194433
0.177827
0.153248
0.11905
0.0788314
0.0439277
0.0253462
0.0240591
0.0219569
0.0230367
0.0390525
0.0688975
0.106049
0.139784
0.164792
0.182139
0.193795
0.201588
0.206831
0.210359
0.212676
0.21408
0.214743
0.214741
0.214076
0.212671
0.210356
0.206833
0.201598
0.193813
0.182164
0.164825
0.139816
0.106067
0.0688929
0.0390501
0.0230332
0.0219602
0.0196553
0.0205517
0.0339557
0.0582904
0.0909266
0.122425
0.146846
0.164157
0.176162
0.184627
0.190707
0.195053
0.198047
0.19992
0.200819
0.200817
0.199913
0.198037
0.195044
0.190705
0.184636
0.176184
0.164194
0.146899
0.12249
0.0909773
0.0583087
0.0339623
0.0205499
0.0196576
0.0171433
0.0181157
0.0285942
0.0470584
0.0734016
0.0999879
0.122148
0.138117
0.149707
0.158568
0.165415
0.17057
0.174243
0.176579
0.177709
0.177704
0.176565
0.174222
0.170545
0.165397
0.158566
0.149727
0.13816
0.122219
0.10007
0.0734691
0.0470887
0.0286048
0.018111
0.0171449
0.0144269
0.015897
0.0227798
0.0358781
0.0544107
0.0738163
0.0899202
0.102473
0.112691
0.121496
0.128733
0.134346
0.138426
0.141011
0.142267
0.142259
0.140987
0.138388
0.13429
0.128681
0.121461
0.112687
0.1025
0.0899777
0.0738861
0.0544599
0.035903
0.0227895
0.0158902
0.0144277
0.0115703
0.0134192
0.0179001
0.0256626
0.0359424
0.0465769
0.0560224
0.0642438
0.0715426
0.0781096
0.0837595
0.0883212
0.0917443
0.0940086
0.0951293
0.0951176
0.0939744
0.0916905
0.0882548
0.0836945
0.078062
0.0715257
0.0642465
0.0560412
0.0466053
0.0359692
0.0256741
0.0179014
0.0134102
0.0115698
0.00868481
0.0101991
0.0132304
0.0166903
0.0218418
0.0272825
0.0323091
0.0367065
0.0407187
0.0443012
0.0473452
0.049804
0.0516713
0.0529139
0.0535333
0.0535296
0.0529027
0.0516521
0.0497778
0.0473187
0.0442879
0.0407143
0.0367092
0.0323156
0.0272912
0.0218497
0.0166954
0.0132298
0.0101918
0.00868352
0.0051187
0.00161091
0.00745448
0.0110299
0.0146148
0.0176281
0.0202138
0.0226171
0.0247076
0.0264924
0.0279677
0.0291363
0.0300111
0.030595
0.030887
0.0308859
0.0305918
0.0300062
0.0291304
0.0279617
0.0264878
0.024704
0.0226144
0.0202113
0.0176233
0.0146092
0.0110247
0.0074504
0.00160935
0.00511757
0.00355961
0.0060861
0.0086935
0.0110707
0.0134489
0.0156963
0.0177662
0.0195387
0.021073
0.0223955
0.023515
0.0244251
0.0251116
0.0255706
0.0258007
0.0258011
0.0255718
0.0251135
0.0244277
0.0235179
0.0223979
0.0210755
0.0195413
0.0177693
0.0156988
0.0134505
0.0110712
0.008693
0.00608506
0.00355894
0.00337514
0.00573809
0.00825202
0.0105674
0.012891
0.0150865
0.0171033
0.0188415
0.0203654
0.0216842
0.0227847
0.023666
0.0243298
0.0247738
0.0249962
0.0249959
0.024773
0.0243286
0.0236645
0.0227829
0.0216825
0.0203638
0.0188402
0.017102
0.0150859
0.0128912
0.0105683
0.00825335
0.00573948
0.0033761
0.0048946
0.00255552
0.0107565
0.0160363
0.0210932
0.0255671
0.0293741
0.0323357
0.0346089
0.0363268
0.0376241
0.0385968
0.0392973
0.0397534
0.0399787
0.0399786
0.0397534
0.0392974
0.0385972
0.0376249
0.0363277
0.0346101
0.0323397
0.0293815
0.0255772
0.0211035
0.0160449
0.0107629
0.00255882
0.00489648
0.00830622
0.0131793
0.0173246
0.021102
0.0241111
0.0271957
0.0301702
0.0330214
0.0357614
0.0382609
0.0404308
0.0422289
0.0436137
0.04456
0.045039
0.0450379
0.0445567
0.0436079
0.0422224
0.0404222
0.0382474
0.035748
0.033024
0.0301773
0.0272029
0.0241175
0.0211069
0.0173294
0.0131895
0.00830832
0.0110739
0.0182962
0.0233434
0.0249008
0.0287066
0.034992
0.0415901
0.0477491
0.0532269
0.0578621
0.0617163
0.0648724
0.0672892
0.0689348
0.0697686
0.0697734
0.068949
0.067312
0.0649012
0.061746
0.0578842
0.0532268
0.0477269
0.041573
0.0349847
0.028706
0.0249054
0.0233536
0.0183117
0.0110758
0.0137974
0.0222278
0.0264327
0.0295582
0.0387217
0.0507403
0.0619883
0.0717382
0.0798154
0.0866257
0.0922746
0.096878
0.100381
0.102906
0.104203
0.104212
0.102931
0.100428
0.0969351
0.0923261
0.0866519
0.079817
0.0717196
0.0619621
0.0507178
0.0387189
0.0295573
0.0264397
0.0222391
0.0137982
0.0164135
0.0256438
0.0286461
0.0358991
0.0508334
0.0686292
0.085783
0.100897
0.112997
0.122449
0.129824
0.135485
0.139565
0.142236
0.143567
0.143571
0.142249
0.139589
0.135517
0.129845
0.122447
0.112969
0.100847
0.0857168
0.0685806
0.0508029
0.0358854
0.0286487
0.025651
0.0164131
0.0188812
0.0282393
0.0310116
0.0435785
0.0631075
0.0862516
0.109573
0.128517
0.142444
0.152693
0.16029
0.165867
0.169789
0.17229
0.173511
0.173512
0.172294
0.169795
0.165872
0.160286
0.152675
0.142412
0.128469
0.109505
0.0861839
0.0630684
0.0435593
0.0310109
0.0282402
0.0188796
0.0211548
0.0303133
0.0341001
0.0510491
0.0747863
0.103184
0.129568
0.149743
0.164338
0.174718
0.182084
0.187265
0.190788
0.19298
0.194032
0.194032
0.192979
0.190786
0.187259
0.182072
0.174698
0.16431
0.149706
0.129525
0.103144
0.0747608
0.0510389
0.0340916
0.0303116
0.0211525
0.0231902
0.0319916
0.0374884
0.0574155
0.0850534
0.117669
0.145056
0.165431
0.1799
0.189957
0.196866
0.201549
0.204624
0.206485
0.207362
0.207361
0.206482
0.204619
0.201541
0.196854
0.189941
0.179881
0.165409
0.145035
0.117656
0.0850508
0.0574104
0.0374831
0.0319892
0.0231872
0.0249826
0.0333641
0.0408466
0.0634042
0.0950211
0.129599
0.156978
0.176904
0.190814
0.200285
0.206618
0.210771
0.213405
0.214953
0.215667
0.215666
0.21495
0.213401
0.210764
0.206609
0.200275
0.190802
0.176894
0.156972
0.129603
0.0950394
0.0634042
0.0408463
0.0333609
0.0249792
0.0265121
0.0344887
0.0439236
0.0686987
0.103682
0.138906
0.165962
0.185207
0.198391
0.207183
0.212911
0.216552
0.218784
0.220055
0.220628
0.220627
0.220053
0.218781
0.216548
0.212907
0.207179
0.198387
0.185207
0.165968
0.138924
0.103713
0.0687022
0.0439283
0.0344848
0.0265083
0.0277601
0.0353951
0.0464831
0.0730591
0.110588
0.145988
0.172556
0.191096
0.203563
0.211705
0.216878
0.220067
0.221957
0.222997
0.223455
0.223455
0.222997
0.221956
0.220066
0.216878
0.211707
0.203567
0.191105
0.172571
0.146014
0.110624
0.0730624
0.0464875
0.0353907
0.027756
0.0287107
0.0360904
0.0484203
0.076327
0.11568
0.15108
0.177176
0.195107
0.206969
0.214571
0.219291
0.22212
0.223744
0.224609
0.22498
0.22498
0.22461
0.223746
0.222123
0.219296
0.21458
0.206981
0.195123
0.177199
0.151111
0.115717
0.0763326
0.0484248
0.0360867
0.0287065
0.0293521
0.0365742
0.0497535
0.0784908
0.119012
0.154366
0.180108
0.197599
0.209031
0.216251
0.220653
0.223234
0.224677
0.225424
0.225738
0.225739
0.225427
0.224682
0.223241
0.220663
0.216264
0.209048
0.197621
0.180136
0.1544
0.11905
0.0784978
0.0497586
0.0365738
0.0293478
0.0296761
0.0368655
0.0504386
0.0795738
0.120653
0.155972
0.181528
0.198791
0.209999
0.217023
0.221263
0.223718
0.22507
0.225758
0.226043
0.226044
0.225762
0.225076
0.223728
0.221276
0.21704
0.21002
0.198816
0.181559
0.156009
0.120692
0.0795834
0.050445
0.036877
0.0296721
0.0296768
0.0368639
0.0504377
0.0795633
0.120638
0.155961
0.181519
0.198784
0.209993
0.217018
0.221258
0.223714
0.225065
0.225754
0.22604
0.226041
0.225759
0.225073
0.223725
0.221273
0.217037
0.210017
0.198811
0.181552
0.155999
0.120679
0.0795765
0.0504442
0.0368766
0.0296726
0.0293542
0.0365711
0.0497509
0.0784594
0.118967
0.154332
0.180083
0.197579
0.209014
0.216236
0.220639
0.223221
0.224665
0.225413
0.225727
0.225729
0.225418
0.224673
0.223233
0.220655
0.216255
0.209037
0.197607
0.180117
0.154373
0.119012
0.0784775
0.0497562
0.036573
0.0293494
0.0287142
0.036086
0.0484161
0.0762755
0.115608
0.151027
0.177138
0.195077
0.206943
0.214547
0.219268
0.222098
0.223723
0.224589
0.224962
0.224964
0.224594
0.223731
0.22211
0.219282
0.214565
0.206964
0.195102
0.17717
0.151068
0.115658
0.0763
0.0484213
0.0360857
0.0287089
0.0277647
0.0353891
0.046478
0.0729854
0.110494
0.145922
0.172509
0.191059
0.203529
0.211673
0.216846
0.220036
0.221928
0.22297
0.223429
0.223431
0.222974
0.221935
0.220047
0.216859
0.211688
0.203546
0.191078
0.172535
0.14596
0.110547
0.0730174
0.0464844
0.0353892
0.0277591
0.0265175
0.0344816
0.0439267
0.0686145
0.103577
0.138835
0.165912
0.185166
0.198352
0.207145
0.212873
0.216513
0.218746
0.220018
0.220593
0.220595
0.220023
0.218753
0.216522
0.212882
0.207155
0.198362
0.185178
0.165929
0.138866
0.103629
0.068654
0.0439377
0.0344831
0.0265119
0.0249885
0.0333561
0.0408507
0.063317
0.0949153
0.129528
0.156929
0.176863
0.190772
0.200242
0.206572
0.210723
0.213358
0.214907
0.215623
0.215625
0.214911
0.213364
0.21073
0.206578
0.200247
0.190776
0.176865
0.156935
0.129546
0.0949581
0.0633552
0.0408569
0.0333588
0.0249829
0.0231961
0.0319835
0.037492
0.0573371
0.0849441
0.117603
0.145019
0.165396
0.17986
0.189909
0.196811
0.20149
0.204565
0.206428
0.207307
0.207309
0.206432
0.204572
0.201497
0.196816
0.18991
0.179856
0.165386
0.145007
0.117605
0.0849778
0.0573675
0.0374926
0.0319873
0.0231908
0.0211602
0.030306
0.0341022
0.0510003
0.0747492
0.103178
0.129568
0.149728
0.164305
0.174667
0.182018
0.187189
0.190712
0.192907
0.193963
0.193965
0.192914
0.190722
0.187198
0.182022
0.174663
0.16429
0.1497
0.129527
0.103138
0.0747405
0.0510141
0.0340996
0.0303104
0.0211555
0.0188846
0.0282315
0.0310044
0.0435832
0.0631378
0.0863253
0.10963
0.128536
0.142425
0.152639
0.160204
0.16576
0.169685
0.172192
0.173417
0.173421
0.172204
0.169703
0.165781
0.160215
0.152633
0.142399
0.128487
0.10955
0.086234
0.0630898
0.0435659
0.0310112
0.0282386
0.0188812
0.0164157
0.0256335
0.0286422
0.0359078
0.0508891
0.0687326
0.0859044
0.100946
0.112986
0.12238
0.129695
0.135315
0.139414
0.142092
0.143428
0.143435
0.142115
0.139451
0.135368
0.129733
0.122388
0.112958
0.100883
0.0858007
0.0686504
0.0508387
0.0358939
0.0286497
0.0256461
0.0164137
0.0137987
0.0222163
0.026431
0.029565
0.0387337
0.0508266
0.062079
0.0717864
0.0798117
0.0865576
0.0921259
0.0966732
0.100183
0.102706
0.104004
0.104016
0.102743
0.100242
0.0967634
0.0922033
0.0865993
0.0798121
0.0717528
0.0620242
0.0507744
0.038734
0.0295585
0.0264379
0.022233
0.0137984
0.0110733
0.0182833
0.0233424
0.0249053
0.0287224
0.0350015
0.0416028
0.047762
0.0532143
0.0578123
0.0616383
0.0647755
0.067184
0.068827
0.0696629
0.0696736
0.0688577
0.0672312
0.0648331
0.0616943
0.0578528
0.0532165
0.0477381
0.041587
0.0349951
0.0287107
0.0249001
0.0233499
0.0183042
0.011075
0.00830469
0.0131742
0.0173293
0.0211065
0.0241105
0.0271891
0.0301618
0.0330132
0.0357632
0.0382624
0.040431
0.0422289
0.0436114
0.0445567
0.045036
0.0450358
0.0445559
0.0436101
0.042227
0.0404265
0.0382515
0.035751
0.033017
0.0301688
0.0271945
0.0241115
0.0211046
0.0173303
0.0131879
0.00830714
0.00489332
0.00255095
0.0107526
0.0160259
0.0210793
0.0255529
0.029364
0.0323279
0.0346031
0.0363207
0.0376166
0.0385883
0.0392884
0.0397446
0.0399701
0.0399704
0.0397454
0.0392898
0.0385902
0.0376189
0.0363231
0.034606
0.0323341
0.0293739
0.0255665
0.0210931
0.0160372
0.0107599
0.00255628
0.0048956
0.00337438
0.00573677
0.00825101
0.010567
0.0128918
0.0150891
0.0171077
0.0188464
0.0203714
0.0216914
0.0227941
0.0236764
0.0243407
0.024785
0.0250074
0.0250068
0.0247834
0.0243381
0.023673
0.0227901
0.0216876
0.0203676
0.0188428
0.0171042
0.0150868
0.012891
0.0105674
0.00825228
0.00573849
0.00337556
0.00332051
0.00563612
0.00812236
0.0104381
0.0127547
0.0149456
0.016962
0.0186951
0.0202052
0.0215088
0.0226006
0.0234773
0.024137
0.0245778
0.0247986
0.0247987
0.0245781
0.0241375
0.0234778
0.0226009
0.0215088
0.0202049
0.018694
0.01696
0.0149429
0.0127515
0.0104349
0.00811964
0.00563386
0.00331922
0.00483229
0.00296284
0.0119339
0.0182982
0.0243322
0.0297795
0.0345915
0.0386653
0.0419929
0.0446673
0.0467815
0.0484064
0.0495897
0.0503624
0.0507435
0.0507422
0.0503582
0.0495824
0.0483957
0.0467678
0.0446506
0.0419734
0.0386408
0.0345602
0.0297491
0.0243084
0.0182838
0.0119294
0.00295784
0.00483012
0.00817846
0.0141404
0.0196281
0.025309
0.030133
0.0346105
0.0387552
0.0423597
0.0451919
0.0473419
0.0489447
0.0501189
0.0509488
0.0514847
0.0517479
0.051746
0.0514789
0.0509397
0.0501072
0.0489312
0.0473267
0.0451746
0.0423288
0.0387244
0.0345898
0.0301262
0.0253114
0.0196308
0.0141324
0.0081758
0.0109293
0.0203581
0.027481
0.0310695
0.0340349
0.0368609
0.0400269
0.0433131
0.0466745
0.0501168
0.053223
0.0558202
0.0578419
0.0592282
0.0599352
0.0599391
0.0592392
0.0578585
0.0558404
0.0532441
0.0501376
0.0466946
0.0433248
0.0400336
0.0368681
0.0340461
0.0310758
0.0274715
0.0203298
0.0109263
0.0136189
0.0255313
0.0325371
0.0354287
0.0374345
0.0425998
0.0504954
0.0582306
0.0649613
0.0708856
0.0759847
0.0799871
0.0830213
0.0850273
0.0860341
0.0860301
0.0850161
0.083003
0.079967
0.0759715
0.0708961
0.0649739
0.058241
0.0504961
0.042597
0.0374383
0.0354265
0.0325151
0.0255064
0.013617
0.0162008
0.030229
0.0362968
0.0384296
0.0429315
0.0548704
0.0681627
0.0795437
0.0889429
0.0966424
0.102936
0.107959
0.111867
0.114587
0.115967
0.115966
0.114584
0.11186
0.107941
0.102928
0.0966545
0.0889708
0.0795824
0.0681997
0.0548688
0.0429345
0.038422
0.0362696
0.0302075
0.0162003
0.0186144
0.0343643
0.0392136
0.0412008
0.0514267
0.0684788
0.0856995
0.101726
0.115531
0.126254
0.134386
0.140458
0.144765
0.147572
0.148961
0.148962
0.147574
0.144769
0.140465
0.134401
0.126279
0.115563
0.101765
0.0857512
0.0685135
0.0514379
0.0411911
0.0391842
0.0343454
0.0186151
0.0208286
0.0378967
0.0412799
0.0447451
0.0608666
0.0812572
0.102805
0.123339
0.139264
0.150989
0.159528
0.165677
0.169929
0.172614
0.173919
0.17392
0.172617
0.169932
0.165681
0.159535
0.150999
0.139278
0.123364
0.102833
0.081277
0.0608663
0.0447493
0.041256
0.0378809
0.0208304
0.0228186
0.0408876
0.0429119
0.0495321
0.0698127
0.0929048
0.118585
0.140654
0.157227
0.169206
0.177728
0.183698
0.18773
0.190222
0.191413
0.191414
0.190223
0.187731
0.183699
0.177729
0.169207
0.157229
0.14066
0.118592
0.0928981
0.069794
0.0495419
0.0428851
0.040874
0.0228213
0.0245633
0.0433521
0.0443164
0.0543663
0.0772866
0.103399
0.131637
0.153933
0.170416
0.18218
0.190422
0.196083
0.199828
0.202103
0.203176
0.203176
0.202103
0.199828
0.196081
0.190418
0.182175
0.170411
0.153929
0.131628
0.103377
0.0772541
0.0543775
0.0442879
0.0433405
0.0245665
0.0260452
0.0453352
0.0455577
0.0588154
0.0837039
0.112824
0.141671
0.163851
0.179937
0.191277
0.199117
0.204414
0.207856
0.209913
0.210872
0.210872
0.209912
0.207854
0.20441
0.199111
0.19127
0.179928
0.163841
0.141653
0.112786
0.0836518
0.0587984
0.0455283
0.0453258
0.0260488
0.0272494
0.0468745
0.0466568
0.0624191
0.0888628
0.120329
0.149247
0.171063
0.186662
0.197532
0.204949
0.209886
0.213042
0.2149
0.215756
0.215756
0.214898
0.213039
0.209881
0.204942
0.197522
0.18665
0.171047
0.149221
0.120281
0.088804
0.0624008
0.0466322
0.0468677
0.0272533
0.0281637
0.0480022
0.0475842
0.0652314
0.0927304
0.125836
0.154654
0.176073
0.191222
0.201669
0.208717
0.213344
0.21626
0.217953
0.218725
0.218725
0.21795
0.216256
0.213338
0.208707
0.201657
0.191206
0.176052
0.154622
0.125785
0.0926745
0.0652181
0.0475667
0.0479979
0.0281679
0.0287784
0.0487377
0.0482636