/*--------------------------------*- C++ -*----------------------------------*\
| =========                 |                                                 |
| \\      /  F ield         | OpenFOAM: The Open Source CFD Toolbox           |
|  \\    /   O peration     | Version:  2312                                  |
|   \\  /    A nd           | Website:  www.openfoam.com                      |
|    \\/     M anipulation  |                                                 |
\*---------------------------------------------------------------------------*/
FoamFile
{
    version     2.0;
    format      ascii;
    arch        "LSB;label=32;scalar=64";
    class       volScalarField;
    location    "300";
    object      epsilon;
}
// * * * * * * * * * * * * * * * * * * * * * * * * * * * * * * * * * * * * * //

dimensions      [0 2 -3 0 0 0 0];

internalField   nonuniform List<scalar> 
27000
(
0.00152959
0.000225053
0.000110933
7.00591e-05
5.19541e-05
4.16603e-05
3.49555e-05
3.03173e-05
2.69846e-05
2.45439e-05
2.2728e-05
2.13975e-05
2.04683e-05
1.98795e-05
1.95938e-05
1.95935e-05
1.98786e-05
2.04668e-05
2.13953e-05
2.27252e-05
2.4541e-05
2.69812e-05
3.03131e-05
3.49507e-05
4.1655e-05
5.19488e-05
7.00551e-05
0.000110934
0.00022507
0.00152977
0.000151185
3.26617e-05
1.39614e-05
9.3264e-06
7.19243e-06
5.95955e-06
5.12146e-06
4.50897e-06
4.05016e-06
3.70662e-06
3.4492e-06
3.25923e-06
3.12559e-06
3.04054e-06
2.99918e-06
2.99915e-06
3.04045e-06
3.12544e-06
3.25905e-06
3.44902e-06
3.70653e-06
4.05011e-06
4.50896e-06
5.12152e-06
5.95965e-06
7.19265e-06
9.32715e-06
1.3964e-05
3.26687e-05
0.000151216
0.000100308
1.54358e-05
5.15595e-06
2.55862e-06
1.90847e-06
1.62429e-06
1.44626e-06
1.31765e-06
1.21979e-06
1.14476e-06
1.08754e-06
1.04474e-06
1.01424e-06
9.94632e-07
9.85046e-07
9.85056e-07
9.94665e-07
1.0143e-06
1.04484e-06
1.08769e-06
1.14497e-06
1.22005e-06
1.31793e-06
1.44653e-06
1.62446e-06
1.90854e-06
2.55878e-06
5.15722e-06
1.54397e-05
0.000100315
6.66727e-05
1.03387e-05
2.84898e-06
1.38492e-06
9.88165e-07
8.48742e-07
7.78072e-07
7.31521e-07
6.97127e-07
6.70972e-07
6.50834e-07
6.35584e-07
6.24608e-07
6.17497e-07
6.14008e-07
6.1402e-07
6.17535e-07
6.24672e-07
6.35675e-07
6.50953e-07
6.7111e-07
6.97272e-07
7.3165e-07
7.78149e-07
8.48734e-07
9.88089e-07
1.38493e-06
2.84962e-06
1.03411e-05
6.66753e-05
4.91902e-05
7.28732e-06
2.05374e-06
1.03742e-06
7.4455e-07
6.36841e-07
5.88888e-07
5.62118e-07
5.44306e-07
5.32601e-07
5.2393e-07
5.17232e-07
5.12366e-07
5.09189e-07
5.07624e-07
5.07635e-07
5.0922e-07
5.12415e-07
5.17296e-07
5.24001e-07
5.32655e-07
5.44357e-07
5.62146e-07
5.88875e-07
6.3678e-07
7.4447e-07
1.03743e-06
2.05415e-06
7.2886e-06
4.91902e-05
3.85932e-05
5.62859e-06
1.63633e-06
8.76524e-07
6.47509e-07
5.58618e-07
5.19624e-07
5.00141e-07
4.88995e-07
4.82104e-07
4.77492e-07
4.742e-07
4.71873e-07
4.70371e-07
4.69635e-07
4.69642e-07
4.70393e-07
4.71907e-07
4.7424e-07
4.77532e-07
4.82135e-07
4.89011e-07
5.00132e-07
5.19586e-07
5.58568e-07
6.47462e-07
8.76561e-07
1.63662e-06
5.62928e-06
3.85925e-05
3.15981e-05
4.60465e-06
1.39337e-06
7.82169e-07
5.95716e-07
5.22354e-07
4.89677e-07
4.74106e-07
4.66116e-07
4.61696e-07
4.59053e-07
4.57351e-07
4.56224e-07
4.5552e-07
4.55181e-07
4.55186e-07
4.55534e-07
4.56244e-07
4.57373e-07
4.59072e-07
4.61705e-07
4.6611e-07
4.74081e-07
4.89636e-07
5.22312e-07
5.95696e-07
7.82217e-07
1.39356e-06
4.60502e-06
3.15974e-05
2.67178e-05
3.9136e-06
1.23315e-06
7.20211e-07
5.62389e-07
5.01749e-07
4.74784e-07
4.62256e-07
4.56254e-07
4.53263e-07
4.51684e-07
4.50787e-07
4.50248e-07
4.49931e-07
4.49783e-07
4.49786e-07
4.49939e-07
4.50258e-07
4.50797e-07
4.51689e-07
4.53259e-07
4.56239e-07
4.62228e-07
4.74751e-07
5.01722e-07
5.62387e-07
7.20248e-07
1.23326e-06
3.91376e-06
2.67174e-05
2.31654e-05
3.41834e-06
1.11766e-06
6.76104e-07
5.39445e-07
4.88609e-07
4.66414e-07
4.56404e-07
4.51863e-07
4.49791e-07
4.48823e-07
4.48347e-07
4.48096e-07
4.47962e-07
4.47902e-07
4.47903e-07
4.47965e-07
4.481e-07
4.48349e-07
4.48821e-07
4.49781e-07
4.51845e-07
4.5638e-07
4.66389e-07
4.8859e-07
5.39443e-07
6.76118e-07
1.1177e-06
3.41837e-06
2.31653e-05
2.05764e-05
3.05696e-06
1.03168e-06
6.43693e-07
5.25369e-07
4.80269e-07
4.6141e-07
4.5329e-07
4.49816e-07
4.48359e-07
4.47755e-07
4.47501e-07
4.47388e-07
4.47335e-07
4.47314e-07
4.47314e-07
4.47337e-07
4.47389e-07
4.475e-07
4.4775e-07
4.48349e-07
4.49801e-07
4.53271e-07
4.61391e-07
4.80252e-07
5.25357e-07
6.43683e-07
1.03166e-06
3.0569e-06
2.05765e-05
1.8687e-05
2.79292e-06
9.67473e-07
6.18935e-07
5.13856e-07
4.74295e-07
4.58153e-07
4.51483e-07
4.48789e-07
4.47747e-07
4.47364e-07
4.47229e-07
4.47181e-07
4.47163e-07
4.47156e-07
4.47156e-07
4.47163e-07
4.4718e-07
4.47226e-07
4.47359e-07
4.47738e-07
4.48777e-07
4.51469e-07
4.58138e-07
4.74278e-07
5.13836e-07
6.18907e-07
9.67413e-07
2.79281e-06
1.86872e-05
1.73262e-05
2.60255e-06
9.20461e-07
6.00549e-07
5.05128e-07
4.69891e-07
4.55905e-07
4.50346e-07
4.4822e-07
4.4746e-07
4.47213e-07
4.47143e-07
4.47126e-07
4.47123e-07
4.47122e-07
4.47122e-07
4.47122e-07
4.47125e-07
4.47141e-07
4.47209e-07
4.47454e-07
4.48212e-07
4.50336e-07
4.55892e-07
4.69874e-07
5.05105e-07
6.00511e-07
9.20377e-07
2.6024e-06
1.73264e-05
1.63841e-05
2.47061e-06
8.87499e-07
5.87438e-07
4.98905e-07
4.66784e-07
4.54368e-07
4.4961e-07
4.47881e-07
4.47309e-07
4.47147e-07
4.47112e-07
4.47111e-07
4.47114e-07
4.47116e-07
4.47116e-07
4.47114e-07
4.4711e-07
4.47111e-07
4.47145e-07
4.47306e-07
4.47877e-07
4.49603e-07
4.54358e-07
4.66768e-07
4.98882e-07
5.87404e-07
8.87401e-07
2.47043e-06
1.63843e-05
1.57906e-05
2.38742e-06
8.6654e-07
5.78959e-07
4.94905e-07
4.64802e-07
4.53403e-07
4.4916e-07
4.47682e-07
4.47225e-07
4.47112e-07
4.47098e-07
4.47104e-07
4.4711e-07
4.47114e-07
4.47114e-07
4.47111e-07
4.47105e-07
4.47098e-07
4.47112e-07
4.47224e-07
4.4768e-07
4.49156e-07
4.53396e-07
4.6479e-07
4.94882e-07
5.78923e-07
8.6643e-07
2.3872e-06
1.57908e-05
1.5504e-05
2.34724e-06
8.56366e-07
5.74819e-07
4.92947e-07
4.63834e-07
4.52933e-07
4.48942e-07
4.47585e-07
4.47184e-07
4.47094e-07
4.4709e-07
4.471e-07
4.47107e-07
4.47111e-07
4.47111e-07
4.47108e-07
4.47101e-07
4.47091e-07
4.47096e-07
4.47186e-07
4.47587e-07
4.48941e-07
4.52929e-07
4.63825e-07
4.92927e-07
5.74781e-07
8.56248e-07
2.34698e-06
1.55042e-05
1.55049e-05
2.34739e-06
8.5638e-07
5.74814e-07
4.92934e-07
4.63821e-07
4.52921e-07
4.48933e-07
4.47579e-07
4.47179e-07
4.47091e-07
4.47087e-07
4.47097e-07
4.47105e-07
4.47108e-07
4.47109e-07
4.47106e-07
4.47099e-07
4.47089e-07
4.47094e-07
4.47183e-07
4.47582e-07
4.48935e-07
4.52921e-07
4.63815e-07
4.92918e-07
5.74777e-07
8.56255e-07
2.34708e-06
1.55049e-05
1.57933e-05
2.38785e-06
8.66581e-07
5.78944e-07
4.94865e-07
4.64762e-07
4.53369e-07
4.49135e-07
4.47664e-07
4.47212e-07
4.47102e-07
4.47089e-07
4.47096e-07
4.47102e-07
4.47105e-07
4.47106e-07
4.47103e-07
4.47098e-07
4.47092e-07
4.47105e-07
4.47216e-07
4.47668e-07
4.49139e-07
4.53372e-07
4.64761e-07
4.94853e-07
5.78907e-07
8.66452e-07
2.3875e-06
1.57931e-05
1.63888e-05
2.47134e-06
8.87559e-07
5.87405e-07
4.98837e-07
4.66718e-07
4.54316e-07
4.49573e-07
4.47855e-07
4.47291e-07
4.47132e-07
4.47099e-07
4.47097e-07
4.471e-07
4.47101e-07
4.47102e-07
4.47101e-07
4.47099e-07
4.47102e-07
4.47135e-07
4.47294e-07
4.47859e-07
4.49577e-07
4.54321e-07
4.6672e-07
4.98829e-07
5.87369e-07
8.87427e-07
2.47093e-06
1.63882e-05
1.7333e-05
2.60357e-06
9.20526e-07
6.00473e-07
5.05029e-07
4.69804e-07
4.55841e-07
4.50303e-07
4.48193e-07
4.47441e-07
4.47198e-07
4.47127e-07
4.47107e-07
4.47102e-07
4.47101e-07
4.47101e-07
4.47104e-07
4.47109e-07
4.47128e-07
4.47199e-07
4.47442e-07
4.48194e-07
4.50306e-07
4.55845e-07
4.69807e-07
5.05024e-07
6.00438e-07
9.20393e-07
2.60311e-06
1.73321e-05
1.86961e-05
2.79423e-06
9.6753e-07
6.18824e-07
5.13733e-07
4.74199e-07
4.58091e-07
4.51447e-07
4.4877e-07
4.47734e-07
4.4735e-07
4.4721e-07
4.47157e-07
4.47135e-07
4.47126e-07
4.47127e-07
4.47137e-07
4.47159e-07
4.47212e-07
4.4735e-07
4.47731e-07
4.48765e-07
4.51443e-07
4.58089e-07
4.74199e-07
5.13729e-07
6.18794e-07
9.674e-07
2.79371e-06
1.86948e-05
2.05883e-05
3.05854e-06
1.03171e-06
6.43552e-07
5.25242e-07
4.80186e-07
4.61369e-07
4.53277e-07
4.49815e-07
4.48358e-07
4.47746e-07
4.47481e-07
4.47358e-07
4.47297e-07
4.47272e-07
4.47273e-07
4.473e-07
4.47361e-07
4.47483e-07
4.47744e-07
4.4835e-07
4.49803e-07
4.53262e-07
4.61356e-07
4.80177e-07
5.25234e-07
6.43526e-07
1.03159e-06
3.05798e-06
2.05864e-05
2.31802e-05
3.42014e-06
1.11765e-06
6.7595e-07
5.39361e-07
4.88571e-07
4.66417e-07
4.56429e-07
4.5189e-07
4.49806e-07
4.48819e-07
4.48323e-07
4.48055e-07
4.47909e-07
4.47844e-07
4.47846e-07
4.47915e-07
4.48062e-07
4.48327e-07
4.48817e-07
4.49795e-07
4.51869e-07
4.564e-07
4.66386e-07
4.88542e-07
5.39338e-07
6.75923e-07
1.11754e-06
3.41956e-06
2.31778e-05
2.67356e-05
3.91542e-06
1.23307e-06
7.20069e-07
5.62355e-07
5.01779e-07
4.74853e-07
4.62332e-07
4.56313e-07
4.53292e-07
4.5168e-07
4.50754e-07
4.50192e-07
4.49861e-07
4.49707e-07
4.49711e-07
4.49872e-07
4.50206e-07
4.50765e-07
4.51683e-07
4.53282e-07
4.56286e-07
4.62289e-07
4.74799e-07
5.01724e-07
5.62311e-07
7.20033e-07
1.23299e-06
3.91489e-06
2.67326e-05
3.1615e-05
4.60616e-06
1.39324e-06
7.82104e-07
5.95779e-07
5.22482e-07
4.89826e-07
4.74235e-07
4.66201e-07
4.61731e-07
4.59042e-07
4.57303e-07
4.5615e-07
4.55431e-07
4.55085e-07
4.55091e-07
4.55448e-07
4.56174e-07
4.57327e-07
4.59057e-07
4.61729e-07
4.66177e-07
4.74185e-07
4.89753e-07
5.22397e-07
5.95696e-07
7.82043e-07
1.3932e-06
4.60582e-06
3.16127e-05
3.86119e-05
5.62994e-06
1.63628e-06
8.76624e-07
6.47733e-07
5.5885e-07
5.19855e-07
5.00309e-07
4.89088e-07
4.8213e-07
4.77464e-07
4.74134e-07
4.71784e-07
4.70269e-07
4.69528e-07
4.69538e-07
4.70295e-07
4.71822e-07
4.74176e-07
4.77499e-07
4.82146e-07
4.89078e-07
5.00265e-07
5.19775e-07
5.58753e-07
6.47607e-07
8.76521e-07
1.63627e-06
5.62983e-06
3.86096e-05
4.92097e-05
7.28791e-06
2.05373e-06
1.03775e-06
7.45e-07
6.37251e-07
5.89191e-07
5.62281e-07
5.44378e-07
5.32609e-07
5.23889e-07
5.17164e-07
5.12284e-07
5.09103e-07
5.07539e-07
5.07551e-07
5.09138e-07
5.12338e-07
5.17227e-07
5.23951e-07
5.32644e-07
5.44395e-07
5.62264e-07
5.8912e-07
6.37124e-07
7.44831e-07
1.0376e-06
2.0538e-06
7.28831e-06
4.92081e-05
6.66894e-05
1.03369e-05
2.84874e-06
1.38547e-06
9.88841e-07
8.49264e-07
7.78401e-07
7.31691e-07
6.97196e-07
6.70984e-07
6.50828e-07
6.35583e-07
6.2462e-07
6.17522e-07
6.1404e-07
6.14052e-07
6.17559e-07
6.2468e-07
6.35664e-07
6.50924e-07
6.71083e-07
6.97279e-07
7.31739e-07
7.78387e-07
8.49168e-07
9.88676e-07
1.38536e-06
2.84908e-06
1.03386e-05
6.66905e-05
0.000100311
1.54283e-05
5.15462e-06
2.55923e-06
1.90919e-06
1.62482e-06
1.44666e-06
1.31795e-06
1.22006e-06
1.14504e-06
1.0879e-06
1.04517e-06
1.01472e-06
9.95145e-07
9.85569e-07
9.85572e-07
9.95155e-07
1.01474e-06
1.0452e-06
1.08796e-06
1.14514e-06
1.22017e-06
1.31806e-06
1.44672e-06
1.62483e-06
1.90915e-06
2.55931e-06
5.15568e-06
1.54316e-05
0.000100317
0.000151181
3.26524e-05
1.39581e-05
9.32599e-06
7.19331e-06
5.96118e-06
5.12353e-06
4.51129e-06
4.05264e-06
3.70923e-06
3.45219e-06
3.2624e-06
3.1288e-06
3.04375e-06
3.00235e-06
3.00228e-06
3.04352e-06
3.12843e-06
3.26191e-06
3.45162e-06
3.7087e-06
4.05206e-06
4.51068e-06
5.12292e-06
5.96067e-06
7.19298e-06
9.32627e-06
1.396e-05
3.26553e-05
0.0001512
0.00152932
0.000225017
0.000110931
7.00704e-05
5.19702e-05
4.16776e-05
3.49725e-05
3.03336e-05
2.70002e-05
2.45591e-05
2.27456e-05
2.14147e-05
2.04849e-05
1.98957e-05
1.96096e-05
1.96092e-05
1.98944e-05
2.04828e-05
2.14118e-05
2.27418e-05
2.45555e-05
2.69959e-05
3.03284e-05
3.49664e-05
4.16707e-05
5.19629e-05
7.00638e-05
0.000110929
0.000225024
0.00152944
0.00111648
0.000168007
8.87364e-05
5.87563e-05
4.56124e-05
3.79135e-05
3.27803e-05
2.91235e-05
2.64224e-05
2.44209e-05
2.29772e-05
2.19439e-05
2.12203e-05
2.07593e-05
2.0535e-05
2.05353e-05
2.07604e-05
2.12222e-05
2.19467e-05
2.29809e-05
2.44244e-05
2.64269e-05
2.91295e-05
3.27899e-05
3.79246e-05
4.56233e-05
5.87643e-05
8.87338e-05
0.00016798
0.00111613
0.000106414
3.05318e-05
2.02238e-05
1.42558e-05
1.1449e-05
9.62232e-06
8.27796e-06
7.28283e-06
6.51787e-06
5.9339e-06
5.50156e-06
5.19158e-06
4.97787e-06
4.84348e-06
4.77857e-06
4.77867e-06
4.84375e-06
4.9783e-06
5.19211e-06
5.50204e-06
5.93416e-06
6.51807e-06
7.28305e-06
8.27813e-06
9.62174e-06
1.14473e-05
1.42515e-05
2.02138e-05
3.05132e-05
0.000106354
8.35787e-05
2.20471e-05
1.13185e-05
5.83843e-06
3.75123e-06
2.88674e-06
2.40922e-06
2.08636e-06
1.8524e-06
1.68004e-06
1.55494e-06
1.46624e-06
1.40581e-06
1.36841e-06
1.35048e-06
1.35044e-06
1.36831e-06
1.40561e-06
1.466e-06
1.55457e-06
1.6793e-06
1.85141e-06
2.08521e-06
2.40811e-06
2.88593e-06
3.75087e-06
5.83768e-06
1.13141e-05
2.20356e-05
8.35587e-05
5.75137e-05
1.61084e-05
6.52395e-06
2.85171e-06
1.59367e-06
1.16621e-06
9.84151e-07
8.7994e-07
8.0806e-07
7.55238e-07
7.16426e-07
6.88481e-07
6.69206e-07
6.57166e-07
6.51364e-07
6.51339e-07
6.5709e-07
6.69077e-07
6.88294e-07
7.16168e-07
7.5491e-07
8.07702e-07
8.79605e-07
9.83951e-07
1.16629e-06
1.59407e-06
2.85171e-06
6.52087e-06
1.60993e-05
5.75021e-05
4.45088e-05
1.15066e-05
4.10462e-06
1.70894e-06
9.71167e-07
7.12923e-07
6.08668e-07
5.57105e-07
5.24661e-07
5.00568e-07
4.8304e-07
4.70654e-07
4.62167e-07
4.57101e-07
4.54694e-07
4.54671e-07
4.57033e-07
4.62071e-07
4.70526e-07
4.82888e-07
5.00427e-07
5.24532e-07
5.57034e-07
6.08715e-07
7.1314e-07
9.71525e-07
1.70901e-06
4.1026e-06
1.15006e-05
4.45049e-05
3.64358e-05
8.72222e-06
2.82684e-06
1.21201e-06
7.3072e-07
5.54755e-07
4.76964e-07
4.40745e-07
4.21141e-07
4.08548e-07
3.99796e-07
3.93666e-07
3.89494e-07
3.86937e-07
3.85719e-07
3.85702e-07
3.86891e-07
3.89426e-07
3.93583e-07
3.9971e-07
4.0848e-07
4.2111e-07
4.40782e-07
4.77085e-07
5.54956e-07
7.30943e-07
1.21202e-06
2.8254e-06
8.71857e-06
3.64348e-05
3.08813e-05
6.97756e-06
2.12804e-06
9.56198e-07
6.12896e-07
4.79683e-07
4.21333e-07
3.93202e-07
3.78508e-07
3.70045e-07
3.64725e-07
3.61226e-07
3.58932e-07
3.57538e-07
3.56875e-07
3.56865e-07
3.5751e-07
3.58893e-07
3.61185e-07
3.64692e-07
3.70035e-07
3.78538e-07
3.93286e-07
4.21471e-07
4.79841e-07
6.1302e-07
9.56158e-07
2.12725e-06
6.97613e-06
3.08812e-05
2.69717e-05
5.84596e-06
1.72688e-06
8.11422e-07
5.45598e-07
4.40244e-07
3.93533e-07
3.70633e-07
3.58799e-07
3.52376e-07
3.48688e-07
3.46467e-07
3.45106e-07
3.44311e-07
3.43941e-07
3.43936e-07
3.44298e-07
3.45089e-07
3.46453e-07
3.48686e-07
3.52397e-07
3.58852e-07
3.70722e-07
3.93653e-07
4.40371e-07
5.45684e-07
8.11423e-07
1.72659e-06
5.84553e-06
2.69715e-05
2.42209e-05
5.08621e-06
1.48305e-06
7.24001e-07
5.03577e-07
4.16837e-07
3.77929e-07
3.58807e-07
3.49022e-07
3.43896e-07
3.41141e-07
3.39616e-07
3.38756e-07
3.38284e-07
3.38072e-07
3.3807e-07
3.38279e-07
3.38751e-07
3.39618e-07
3.41154e-07
3.43926e-07
3.49075e-07
3.58883e-07
3.78021e-07
4.16931e-07
5.03649e-07
7.24048e-07
1.48308e-06
5.08636e-06
2.42207e-05
2.21779e-05
4.55678e-06
1.32567e-06
6.67485e-07
4.74505e-07
4.01486e-07
3.68362e-07
3.52114e-07
3.43901e-07
3.39711e-07
3.37565e-07
3.36455e-07
3.35876e-07
3.3558e-07
3.35453e-07
3.35453e-07
3.35579e-07
3.35877e-07
3.36462e-07
3.37581e-07
3.3974e-07
3.43944e-07
3.52171e-07
3.68428e-07
4.01557e-07
4.74582e-07
6.67568e-07
1.32589e-06
4.55731e-06
2.21778e-05
2.06544e-05
4.18042e-06
1.21963e-06
6.29572e-07
4.56662e-07
3.91477e-07
3.62257e-07
3.48112e-07
3.41085e-07
3.37588e-07
3.35861e-07
3.35012e-07
3.34596e-07
3.34396e-07
3.34314e-07
3.34315e-07
3.34397e-07
3.34599e-07
3.35019e-07
3.35875e-07
3.3761e-07
3.41114e-07
3.4815e-07
3.62303e-07
3.91532e-07
4.56735e-07
6.29675e-07
1.21997e-06
4.18121e-06
2.06545e-05
1.95365e-05
3.91366e-06
1.14684e-06
6.0342e-07
4.44665e-07
3.84832e-07
3.58284e-07
3.45633e-07
3.39469e-07
3.36474e-07
3.35036e-07
3.34354e-07
3.34033e-07
3.33885e-07
3.33827e-07
3.33827e-07
3.33886e-07
3.34036e-07
3.34359e-07
3.35044e-07
3.36486e-07
3.39485e-07
3.45654e-07
3.58312e-07
3.84874e-07
4.44733e-07
6.03534e-07
1.14725e-06
3.91464e-06
1.95369e-05
1.87504e-05
3.73054e-06
1.09777e-06
5.85537e-07
4.36531e-07
3.80407e-07
3.55701e-07
3.44085e-07
3.38522e-07
3.35872e-07
3.34627e-07
3.3405e-07
3.33785e-07
3.33665e-07
3.33618e-07
3.33618e-07
3.33665e-07
3.33785e-07
3.34051e-07
3.34629e-07
3.35874e-07
3.38526e-07
3.44092e-07
3.55714e-07
3.80435e-07
4.36592e-07
5.85667e-07
1.09822e-06
3.73169e-06
1.87512e-05
1.8249e-05
3.61559e-06
1.06731e-06
5.74249e-07
4.31414e-07
3.7766e-07
3.54129e-07
3.43171e-07
3.37987e-07
3.35553e-07
3.34426e-07
3.3391e-07
3.33675e-07
3.33569e-07
3.33528e-07
3.33527e-07
3.33568e-07
3.33673e-07
3.33907e-07
3.34422e-07
3.35547e-07
3.37981e-07
3.43165e-07
3.54128e-07
3.77673e-07
4.31462e-07
5.74376e-07
1.06778e-06
3.61692e-06
1.82502e-05
1.80042e-05
3.55989e-06
1.05267e-06
5.68821e-07
4.28955e-07
3.76353e-07
3.53393e-07
3.42752e-07
3.3775e-07
3.35417e-07
3.34345e-07
3.33857e-07
3.33635e-07
3.33534e-07
3.33495e-07
3.33494e-07
3.33532e-07
3.3363e-07
3.3385e-07
3.34335e-07
3.35405e-07
3.37734e-07
3.42734e-07
3.53377e-07
3.76348e-07
4.28984e-07
5.68934e-07
1.05314e-06
3.56139e-06
1.80059e-05
1.80031e-05
3.55961e-06
1.05268e-06
5.6886e-07
4.29002e-07
3.76392e-07
3.53423e-07
3.42773e-07
3.37764e-07
3.35427e-07
3.34352e-07
3.33862e-07
3.33639e-07
3.33538e-07
3.33499e-07
3.33497e-07
3.33535e-07
3.33633e-07
3.33853e-07
3.34338e-07
3.35408e-07
3.3774e-07
3.42743e-07
3.53391e-07
3.76367e-07
4.29007e-07
5.68954e-07
1.05315e-06
3.56128e-06
1.80054e-05
1.82456e-05
3.61474e-06
1.06735e-06
5.7437e-07
4.31555e-07
3.77777e-07
3.54216e-07
3.43231e-07
3.38027e-07
3.35579e-07
3.34445e-07
3.33925e-07
3.33689e-07
3.33582e-07
3.3354e-07
3.33539e-07
3.33578e-07
3.33681e-07
3.33915e-07
3.3443e-07
3.35558e-07
3.37998e-07
3.43192e-07
3.54169e-07
3.7773e-07
4.31531e-07
5.74438e-07
1.06782e-06
3.61659e-06
1.82488e-05
1.87446e-05
3.72914e-06
1.09785e-06
5.85747e-07
4.36767e-07
3.80597e-07
3.55837e-07
3.44175e-07
3.38579e-07
3.35909e-07
3.34654e-07
3.34073e-07
3.33807e-07
3.33687e-07
3.3364e-07
3.33638e-07
3.33683e-07
3.338e-07
3.34063e-07
3.3464e-07
3.35888e-07
3.38549e-07
3.44131e-07
3.55777e-07
3.80527e-07
4.36709e-07
5.85777e-07
1.09829e-06
3.73115e-06
1.87488e-05
1.9528e-05
3.91171e-06
1.14701e-06
6.03709e-07
4.44994e-07
3.85085e-07
3.58453e-07
3.45737e-07
3.39531e-07
3.36513e-07
3.35066e-07
3.34383e-07
3.34065e-07
3.3392e-07
3.33862e-07
3.33861e-07
3.33915e-07
3.34058e-07
3.34374e-07
3.35055e-07
3.36497e-07
3.39506e-07
3.45696e-07
3.58389e-07
3.84995e-07
4.44897e-07
6.03687e-07
1.1474e-06
3.91391e-06
1.95333e-05
2.06429e-05
4.17799e-06
1.21995e-06
6.29972e-07
4.57074e-07
3.91765e-07
3.62429e-07
3.48203e-07
3.4113e-07
3.37616e-07
3.35887e-07
3.35046e-07
3.34639e-07
3.34447e-07
3.34368e-07
3.34366e-07
3.34441e-07
3.34631e-07
3.35039e-07
3.35882e-07
3.37611e-07
3.41121e-07
3.48179e-07
3.62376e-07
3.91671e-07
4.56947e-07
6.29899e-07
1.22026e-06
4.18032e-06
2.06495e-05
2.2163e-05
4.55398e-06
1.32621e-06
6.68005e-07
4.74953e-07
4.0175e-07
3.68485e-07
3.52153e-07
3.43904e-07
3.39713e-07
3.37583e-07
3.36496e-07
3.35937e-07
3.35656e-07
3.35535e-07
3.35531e-07
3.35646e-07
3.35925e-07
3.36488e-07
3.37583e-07
3.39724e-07
3.43921e-07
3.52164e-07
3.68468e-07
4.01681e-07
4.7482e-07
6.67881e-07
1.32638e-06
4.55633e-06
2.21709e-05
2.4202e-05
5.08328e-06
1.4839e-06
7.24606e-07
5.03913e-07
4.16986e-07
3.77937e-07
3.58749e-07
3.48959e-07
3.43863e-07
3.41153e-07
3.39672e-07
3.38847e-07
3.38398e-07
3.38195e-07
3.38188e-07
3.3838e-07
3.38824e-07
3.39655e-07
3.41152e-07
3.43887e-07
3.49009e-07
3.58813e-07
3.77988e-07
4.16988e-07
5.0384e-07
7.24449e-07
1.48386e-06
5.08548e-06
2.42115e-05
2.69489e-05
5.84355e-06
1.72812e-06
8.12045e-07
5.45798e-07
4.402e-07
3.93363e-07
3.70444e-07
3.58659e-07
3.52313e-07
3.48706e-07
3.46555e-07
3.45245e-07
3.44482e-07
3.44123e-07
3.4411e-07
3.44448e-07
3.452e-07
3.46515e-07
3.4869e-07
3.52337e-07
3.58735e-07
3.70567e-07
3.93507e-07
4.4031e-07
5.45808e-07
8.11888e-07
1.7278e-06
5.84522e-06
2.69599e-05
3.08623e-05
6.97667e-06
2.1297e-06
9.56664e-07
6.1282e-07
4.79367e-07
4.20942e-07
3.92875e-07
3.78307e-07
3.69982e-07
3.64781e-07
3.61374e-07
3.59145e-07
3.57788e-07
3.57135e-07
3.57113e-07
3.57726e-07
3.59059e-07
3.61287e-07
3.64719e-07
3.69974e-07
3.7838e-07
3.9304e-07
4.21179e-07
4.79602e-07
6.12971e-07
9.56577e-07
2.12896e-06
6.97711e-06
3.08722e-05
3.64151e-05
8.72358e-06
2.82884e-06
1.21208e-06
7.30181e-07
5.54108e-07
4.764e-07
4.40335e-07
4.20947e-07
4.08544e-07
3.99934e-07
3.93904e-07
3.89806e-07
3.87284e-07
3.86068e-07
3.86032e-07
3.87181e-07
3.89658e-07
3.93742e-07
3.99786e-07
4.08453e-07
4.20955e-07
4.4048e-07
4.76668e-07
5.54482e-07
7.30568e-07
1.21216e-06
2.82742e-06
8.72131e-06
3.64246e-05
4.44841e-05
1.15129e-05
4.10763e-06
1.7083e-06
9.69992e-07
7.11949e-07
6.08058e-07
5.56793e-07
5.24611e-07
5.00699e-07
4.83292e-07
4.70976e-07
4.62575e-07
4.57524e-07
4.55102e-07
4.55049e-07
4.5737e-07
4.62345e-07
4.70728e-07
4.83032e-07
5.00484e-07
5.24473e-07
5.56797e-07
6.08267e-07
7.12419e-07
9.70651e-07
1.70866e-06
4.10509e-06
1.15061e-05
4.44911e-05
5.7505e-05
1.61274e-05
6.53016e-06
2.8512e-06
1.59207e-06
1.16516e-06
9.83723e-07
8.79932e-07
8.08304e-07
7.55611e-07
7.16829e-07
6.88866e-07
6.69553e-07
6.57466e-07
6.51624e-07
6.51569e-07
6.57304e-07
6.69289e-07
6.88514e-07
7.16393e-07
7.55121e-07
8.07844e-07
8.79582e-07
9.83616e-07
1.16545e-06
1.59274e-06
2.85113e-06
6.52496e-06
1.61126e-05
5.74978e-05
8.36208e-05
2.20812e-05
1.13306e-05
5.8412e-06
3.75217e-06
2.88781e-06
2.41014e-06
2.08719e-06
1.85312e-06
1.68057e-06
1.55519e-06
1.46626e-06
1.40554e-06
1.36797e-06
1.34995e-06
1.3499e-06
1.3678e-06
1.40526e-06
1.46588e-06
1.55464e-06
1.67959e-06
1.8519e-06
2.08583e-06
2.40878e-06
2.88652e-06
3.75106e-06
5.83898e-06
1.1322e-05
2.20579e-05
8.35864e-05
0.000106493
3.05844e-05
2.02478e-05
1.42726e-05
1.14594e-05
9.62769e-06
8.27856e-06
7.28151e-06
6.51555e-06
5.9308e-06
5.4973e-06
5.18665e-06
4.97265e-06
4.83815e-06
4.77328e-06
4.77353e-06
4.83889e-06
4.97383e-06
5.18813e-06
5.49886e-06
5.93211e-06
6.51672e-06
7.28246e-06
8.27877e-06
9.62543e-06
1.1454e-05
1.42629e-05
2.02323e-05
3.0552e-05
0.000106421
0.0011174
0.000168154
8.87747e-05
5.87583e-05
4.55979e-05
3.78919e-05
3.27574e-05
2.91074e-05
2.64079e-05
2.44068e-05
2.2958e-05
2.19253e-05
2.12029e-05
2.07428e-05
2.05192e-05
2.05201e-05
2.07455e-05
2.12074e-05
2.19318e-05
2.29662e-05
2.44147e-05
2.64172e-05
2.91188e-05
3.27742e-05
3.79097e-05
4.56132e-05
5.87656e-05
8.87614e-05
0.00016808
0.00111682
0.000952158
0.000140864
7.59021e-05
5.10911e-05
4.01487e-05
3.3642e-05
2.92255e-05
2.61039e-05
2.38394e-05
2.21578e-05
2.08866e-05
1.99456e-05
1.92851e-05
1.88651e-05
1.86606e-05
1.86599e-05
1.88631e-05
1.92819e-05
1.9941e-05
2.08808e-05
2.21516e-05
2.38324e-05
2.60964e-05
2.92168e-05
3.36354e-05
4.01471e-05
5.10994e-05
7.59328e-05
0.00014096
0.000952914
9.30716e-05
3.39874e-05
2.21998e-05
1.67159e-05
1.41015e-05
1.25329e-05
1.13398e-05
1.03185e-05
9.43182e-06
8.68534e-06
8.08283e-06
7.62025e-06
7.28793e-06
7.07415e-06
6.96962e-06
6.96944e-06
7.07366e-06
7.28725e-06
7.61957e-06
8.0824e-06
8.68539e-06
9.4323e-06
1.03199e-05
1.1343e-05
1.25391e-05
1.41108e-05
1.67289e-05
2.22176e-05
3.40372e-05
9.31708e-05
7.31267e-05
2.24212e-05
1.35069e-05
8.51139e-06
6.06096e-06
4.78151e-06
4.00879e-06
3.46743e-06
3.05642e-06
2.73712e-06
2.49232e-06
2.31156e-06
2.1855e-06
2.10598e-06
2.06765e-06
2.0677e-06
2.10616e-06
2.18583e-06
2.31203e-06
2.49307e-06
2.73844e-06
3.05847e-06
3.47079e-06
4.01271e-06
4.78553e-06
6.06491e-06
8.51617e-06
1.35173e-05
2.24447e-05
7.31779e-05
5.03993e-05
1.79361e-05
9.30845e-06
4.91414e-06
2.80768e-06
1.87964e-06
1.46431e-06
1.24036e-06
1.09688e-06
9.92629e-07
9.14754e-07
8.58076e-07
8.18907e-07
7.94323e-07
7.82521e-07
7.82551e-07
7.94415e-07
8.19059e-07
8.58297e-07
9.15058e-07
9.93035e-07
1.09743e-06
1.24148e-06
1.4654e-06
1.88043e-06
2.80842e-06
4.91668e-06
9.31664e-06
1.79542e-05
5.04254e-05
3.8903e-05
1.38105e-05
6.58224e-06
3.0247e-06
1.50778e-06
9.39716e-07
7.17923e-07
6.16113e-07
5.60027e-07
5.22462e-07
4.95312e-07
4.75769e-07
4.62193e-07
4.52984e-07
4.48475e-07
4.48505e-07
4.53064e-07
4.62282e-07
4.75879e-07
4.9544e-07
5.22602e-07
5.60173e-07
6.16257e-07
7.1797e-07
9.39658e-07
1.50779e-06
3.02632e-06
6.58817e-06
1.38215e-05
3.89103e-05
3.19565e-05
1.129e-05
4.70171e-06
1.96245e-06
9.7185e-07
6.20955e-07
4.84497e-07
4.21082e-07
3.87885e-07
3.67993e-07
3.54668e-07
3.45419e-07
3.39269e-07
3.35459e-07
3.33631e-07
3.33654e-07
3.35521e-07
3.3935e-07
3.45496e-07
3.54737e-07
3.6804e-07
3.87889e-07
4.21019e-07
4.84381e-07
6.20791e-07
9.71816e-07
1.96344e-06
4.70539e-06
1.12952e-05
3.19547e-05
2.73563e-05
9.46689e-06
3.47692e-06
1.38118e-06
7.18427e-07
4.86995e-07
3.88666e-07
3.43612e-07
3.21658e-07
3.0953e-07
3.02073e-07
2.97197e-07
2.94022e-07
2.92103e-07
2.91201e-07
2.91214e-07
2.92137e-07
2.94065e-07
2.97232e-07
3.02086e-07
3.09504e-07
3.21574e-07
3.43465e-07
3.885e-07
4.86867e-07
7.1842e-07
1.38185e-06
3.47889e-06
9.46808e-06
2.73506e-05
2.41012e-05
8.07818e-06
2.70532e-06
1.06606e-06
5.85299e-07
4.15292e-07
3.42649e-07
3.09678e-07
2.93302e-07
2.84578e-07
2.79589e-07
2.76573e-07
2.74718e-07
2.73639e-07
2.73143e-07
2.73149e-07
2.73654e-07
2.74733e-07
2.76577e-07
2.7957e-07
2.84524e-07
2.93205e-07
3.09543e-07
3.42499e-07
4.15173e-07
5.85282e-07
1.06622e-06
2.70595e-06
8.07731e-06
2.40941e-05
2.16824e-05
7.00278e-06
2.21159e-06
8.81572e-07
5.09489e-07
3.73922e-07
3.18245e-07
2.92509e-07
2.79629e-07
2.72871e-07
2.69185e-07
2.67105e-07
2.65913e-07
2.65255e-07
2.64963e-07
2.64965e-07
2.65259e-07
2.65913e-07
2.67096e-07
2.69158e-07
2.72821e-07
2.79555e-07
2.9242e-07
3.18161e-07
3.7387e-07
5.09502e-07
8.81662e-07
2.21171e-06
7.00079e-06
2.16749e-05
1.99019e-05
6.18863e-06
1.88483e-06
7.66957e-07
4.60061e-07
3.48779e-07
3.03923e-07
2.82989e-07
2.72497e-07
2.67056e-07
2.64182e-07
2.62643e-07
2.61816e-07
2.61387e-07
2.61203e-07
2.61204e-07
2.61386e-07
2.61812e-07
2.62631e-07
2.6416e-07
2.67024e-07
2.72457e-07
2.82951e-07
3.03905e-07
3.48798e-07
4.60094e-07
7.67035e-07
1.88468e-06
6.1859e-06
1.98944e-05
1.8591e-05
5.58741e-06
1.66428e-06
6.93433e-07
4.27771e-07
3.33398e-07
2.95187e-07
2.77422e-07
2.68582e-07
2.6406e-07
2.6173e-07
2.60531e-07
2.59919e-07
2.59619e-07
2.59496e-07
2.59496e-07
2.59618e-07
2.59916e-07
2.60524e-07
2.61719e-07
2.64047e-07
2.68573e-07
2.77426e-07
2.95216e-07
3.33457e-07
4.27825e-07
6.93502e-07
1.66395e-06
5.58426e-06
1.85835e-05
1.76399e-05
5.15696e-06
1.51686e-06
6.45393e-07
4.06753e-07
3.23568e-07
2.89735e-07
2.74075e-07
2.66361e-07
2.62475e-07
2.60514e-07
2.59535e-07
2.59055e-07
2.58829e-07
2.58739e-07
2.58739e-07
2.58829e-07
2.59055e-07
2.59535e-07
2.60516e-07
2.6248e-07
2.66377e-07
2.74108e-07
2.89792e-07
3.23647e-07
4.06815e-07
6.45449e-07
1.51649e-06
5.15369e-06
1.76325e-05
1.69774e-05
4.86309e-06
1.42134e-06
6.14653e-07
3.93263e-07
3.17298e-07
2.86329e-07
2.72054e-07
2.65087e-07
2.61624e-07
2.59907e-07
2.59068e-07
2.58667e-07
2.58482e-07
2.58411e-07
2.58412e-07
2.58484e-07
2.5867e-07
2.59075e-07
2.59919e-07
2.61644e-07
2.6512e-07
2.72105e-07
2.86402e-07
3.17388e-07
3.93329e-07
6.14686e-07
1.42096e-06
4.85986e-06
1.69702e-05
1.65588e-05
4.681e-06
1.36356e-06
5.96392e-07
3.85196e-07
3.13546e-07
2.84316e-07
2.70888e-07
2.64381e-07
2.61178e-07
2.59609e-07
2.58852e-07
2.58496e-07
2.58334e-07
2.58272e-07
2.58274e-07
2.58338e-07
2.58503e-07
2.58864e-07
2.59628e-07
2.61208e-07
2.64426e-07
2.70952e-07
2.844e-07
3.13643e-07
3.8527e-07
5.96435e-07
1.36323e-06
4.67801e-06
1.65519e-05
1.63577e-05
4.59691e-06
1.33674e-06
5.87856e-07
3.81398e-07
3.11767e-07
2.83364e-07
2.70343e-07
2.64057e-07
2.6098e-07
2.59482e-07
2.58765e-07
2.58428e-07
2.58277e-07
2.5822e-07
2.58221e-07
2.58282e-07
2.58438e-07
2.58781e-07
2.59507e-07
2.61017e-07
2.64111e-07
2.70417e-07
2.83459e-07
3.11876e-07
3.81491e-07
5.87934e-07
1.3366e-06
4.59481e-06
1.63513e-05
1.63591e-05
4.59709e-06
1.33671e-06
5.87822e-07
3.81356e-07
3.11727e-07
2.83333e-07
2.70321e-07
2.64043e-07
2.60969e-07
2.59475e-07
2.58759e-07
2.58423e-07
2.58272e-07
2.58215e-07
2.58217e-07
2.58279e-07
2.58435e-07
2.58778e-07
2.59503e-07
2.61012e-07
2.64103e-07
2.70404e-07
2.8344e-07
3.11851e-07
3.81467e-07
5.87915e-07
1.33659e-06
4.59499e-06
1.63522e-05
1.65632e-05
4.68178e-06
1.3635e-06
5.96296e-07
3.85069e-07
3.13428e-07
2.84227e-07
2.70826e-07
2.64338e-07
2.61148e-07
2.59587e-07
2.58835e-07
2.5848e-07
2.5832e-07
2.58259e-07
2.58261e-07
2.58327e-07
2.58493e-07
2.58855e-07
2.59617e-07
2.61193e-07
2.64403e-07
2.70916e-07
2.84346e-07
3.1357e-07
3.85199e-07
5.96383e-07
1.36324e-06
4.67871e-06
1.65549e-05
1.69849e-05
4.86443e-06
1.42125e-06
6.14489e-07
3.93049e-07
3.17105e-07
2.86187e-07
2.71957e-07
2.65023e-07
2.6158e-07
2.59874e-07
2.5904e-07
2.5864e-07
2.58456e-07
2.58386e-07
2.58388e-07
2.58463e-07
2.58652e-07
2.59058e-07
2.59902e-07
2.61622e-07
2.65087e-07
2.72051e-07
2.86318e-07
3.1727e-07
3.93213e-07
6.14602e-07
1.42098e-06
4.86101e-06
1.69753e-05
1.76505e-05
5.15879e-06
1.51671e-06
6.45184e-07
4.06452e-07
3.23308e-07
2.89555e-07
2.73959e-07
2.66288e-07
2.62424e-07
2.60473e-07
2.59495e-07
2.59013e-07
2.58785e-07
2.58695e-07
2.58698e-07
2.58792e-07
2.59024e-07
2.5951e-07
2.60493e-07
2.62455e-07
2.6634e-07
2.74046e-07
2.89689e-07
3.23496e-07
4.06663e-07
6.45359e-07
1.51651e-06
5.1552e-06
1.76395e-05
1.86049e-05
5.58961e-06
1.66382e-06
6.93133e-07
4.27387e-07
3.33096e-07
2.94999e-07
2.77313e-07
2.68517e-07
2.64012e-07
2.61683e-07
2.60477e-07
2.59856e-07
2.59549e-07
2.59424e-07
2.59427e-07
2.59557e-07
2.59866e-07
2.60486e-07
2.61691e-07
2.64023e-07
2.68542e-07
2.77371e-07
2.95115e-07
3.33293e-07
4.27648e-07
6.93388e-07
1.66367e-06
5.58598e-06
1.85925e-05
1.9919e-05
6.19112e-06
1.88421e-06
7.66576e-07
4.59644e-07
3.48501e-07
3.03782e-07
2.82926e-07
2.72464e-07
2.67022e-07
2.6413e-07
2.62568e-07
2.61719e-07
2.61276e-07
2.61087e-07
2.61091e-07
2.61286e-07
2.61731e-07
2.62574e-07
2.64125e-07
2.67005e-07
2.72444e-07
2.82925e-07
3.03838e-07
3.48663e-07
4.59929e-07
7.66942e-07
1.8844e-06
6.18778e-06
1.99051e-05
2.17026e-05
7.00541e-06
2.21082e-06
8.81149e-07
5.09248e-07
3.73794e-07
3.18222e-07
2.92535e-07
2.7965e-07
2.72856e-07
2.69123e-07
2.66996e-07
2.65764e-07
2.6508e-07
2.64778e-07