/*--------------------------------*- C++ -*----------------------------------*\
| =========                 |                                                 |
| \\      /  F ield         | OpenFOAM: The Open Source CFD Toolbox           |
|  \\    /   O peration     | Version:  2312                                  |
|   \\  /    A nd           | Website:  www.openfoam.com                      |
|    \\/     M anipulation  |                                                 |
\*---------------------------------------------------------------------------*/
FoamFile
{
    version     2.0;
    format      ascii;
    arch        "LSB;label=32;scalar=64";
    class       volScalarField;
    location    "300";
    object      k;
}
// * * * * * * * * * * * * * * * * * * * * * * * * * * * * * * * * * * * * * //

dimensions      [0 2 -2 0 0 0 0];

internalField   nonuniform List<scalar> 
27000
(
0.000259169
0.000129502
0.000107431
9.55941e-05
9.00498e-05
8.65983e-05
8.3974e-05
8.16827e-05
7.97768e-05
7.82259e-05
7.69352e-05
7.58995e-05
7.51328e-05
7.46278e-05
7.43768e-05
7.43761e-05
7.46256e-05
7.51292e-05
7.58944e-05
7.69289e-05
7.82197e-05
7.97699e-05
8.16753e-05
8.39662e-05
8.65909e-05
9.00437e-05
9.55904e-05
0.000107432
0.000129509
0.000259189
9.83033e-05
2.15693e-05
2.82922e-05
3.06743e-05
3.24375e-05
3.3598e-05
3.43319e-05
3.47634e-05
3.49927e-05
3.51249e-05
3.5208e-05
3.52614e-05
3.52956e-05
3.53162e-05
3.5326e-05
3.5326e-05
3.53162e-05
3.52956e-05
3.52616e-05
3.52084e-05
3.51256e-05
3.49936e-05
3.47646e-05
3.43334e-05
3.35997e-05
3.24396e-05
3.06768e-05
2.82966e-05
2.15733e-05
9.83155e-05
0.000101412
3.50023e-05
2.88324e-05
2.72594e-05
2.79633e-05
2.88877e-05
2.96752e-05
3.03294e-05
3.08338e-05
3.12174e-05
3.15096e-05
3.17287e-05
3.18852e-05
3.19862e-05
3.20358e-05
3.20362e-05
3.19871e-05
3.18868e-05
3.1731e-05
3.15125e-05
3.12205e-05
3.0837e-05
3.03323e-05
2.96774e-05
2.88887e-05
2.79631e-05
2.72584e-05
2.88334e-05
3.50079e-05
0.000101416
9.48919e-05
3.52942e-05
2.8715e-05
2.84618e-05
2.93166e-05
3.01488e-05
3.08185e-05
3.13486e-05
3.1762e-05
3.20773e-05
3.23156e-05
3.24928e-05
3.26188e-05
3.26998e-05
3.27397e-05
3.27401e-05
3.2701e-05
3.26206e-05
3.24952e-05
3.23185e-05
3.20801e-05
3.17644e-05
3.13503e-05
3.08189e-05
3.01477e-05
2.93143e-05
2.84596e-05
2.8715e-05
3.52991e-05
9.48945e-05
9.02995e-05
3.42407e-05
2.90062e-05
2.9638e-05
3.06218e-05
3.1385e-05
3.19521e-05
3.23765e-05
3.26954e-05
3.29324e-05
3.31074e-05
3.32348e-05
3.33238e-05
3.33806e-05
3.34083e-05
3.34087e-05
3.33816e-05
3.33254e-05
3.32367e-05
3.31095e-05
3.29342e-05
3.26965e-05
3.23766e-05
3.1951e-05
3.13828e-05
3.06189e-05
2.96358e-05
2.90063e-05
3.4244e-05
9.02997e-05
8.65746e-05
3.39405e-05
2.94504e-05
3.04571e-05
3.14929e-05
3.22191e-05
3.27207e-05
3.30717e-05
3.33197e-05
3.3495e-05
3.36184e-05
3.37042e-05
3.37622e-05
3.37982e-05
3.38156e-05
3.38159e-05
3.3799e-05
3.37633e-05
3.37055e-05
3.36195e-05
3.34957e-05
3.33196e-05
3.30707e-05
3.27188e-05
3.22165e-05
3.14903e-05
3.04554e-05
2.94508e-05
3.39428e-05
8.65737e-05
8.33991e-05
3.39788e-05
3.01188e-05
3.113e-05
3.2109e-05
3.27784e-05
3.32222e-05
3.35146e-05
3.37065e-05
3.38319e-05
3.39134e-05
3.39659e-05
3.3999e-05
3.40185e-05
3.40277e-05
3.40278e-05
3.4019e-05
3.39996e-05
3.39665e-05
3.39138e-05
3.38318e-05
3.37057e-05
3.35131e-05
3.32201e-05
3.2776e-05
3.2107e-05
3.1129e-05
3.01195e-05
3.39807e-05
8.33981e-05
8.06219e-05
3.41164e-05
3.07805e-05
3.17032e-05
3.25783e-05
3.31688e-05
3.35496e-05
3.37874e-05
3.39314e-05
3.4016e-05
3.40643e-05
3.40911e-05
3.41054e-05
3.41128e-05
3.41159e-05
3.4116e-05
3.4113e-05
3.41057e-05
3.40912e-05
3.40642e-05
3.40155e-05
3.39303e-05
3.37858e-05
3.35477e-05
3.31669e-05
3.25768e-05
3.17026e-05
3.0781e-05
3.41177e-05
8.06212e-05
7.81179e-05
3.42542e-05
3.13241e-05
3.21608e-05
3.29356e-05
3.34466e-05
3.37642e-05
3.39508e-05
3.40533e-05
3.41049e-05
3.41278e-05
3.41359e-05
3.41373e-05
3.41366e-05
3.41358e-05
3.41358e-05
3.41366e-05
3.41373e-05
3.41357e-05
3.41274e-05
3.41041e-05
3.40521e-05
3.39493e-05
3.37626e-05
3.34451e-05
3.29344e-05
3.21602e-05
3.13243e-05
3.42549e-05
7.81177e-05
7.59988e-05
3.43726e-05
3.17526e-05
3.25134e-05
3.3201e-05
3.3643e-05
3.39041e-05
3.40457e-05
3.41136e-05
3.41395e-05
3.41441e-05
3.41397e-05
3.41332e-05
3.41277e-05
3.41248e-05
3.41248e-05
3.41277e-05
3.41331e-05
3.41395e-05
3.41436e-05
3.41387e-05
3.41126e-05
3.40445e-05
3.39028e-05
3.36418e-05
3.32e-05
3.25128e-05
3.17524e-05
3.43729e-05
7.59989e-05
7.42599e-05
3.44692e-05
3.20842e-05
3.27834e-05
3.33991e-05
3.37815e-05
3.39947e-05
3.40993e-05
3.41399e-05
3.41469e-05
3.41391e-05
3.41272e-05
3.41163e-05
3.41086e-05
3.41047e-05
3.41046e-05
3.41085e-05
3.41161e-05
3.41269e-05
3.41387e-05
3.41462e-05
3.41391e-05
3.40983e-05
3.39938e-05
3.37806e-05
3.33983e-05
3.27827e-05
3.20837e-05
3.44691e-05
7.42604e-05
7.28875e-05
3.45436e-05
3.23326e-05
3.29842e-05
3.35437e-05
3.38782e-05
3.40531e-05
3.41287e-05
3.41489e-05
3.41428e-05
3.41273e-05
3.41113e-05
3.40986e-05
3.40902e-05
3.40861e-05
3.40861e-05
3.40901e-05
3.40985e-05
3.41111e-05
3.4127e-05
3.41424e-05
3.41484e-05
3.4128e-05
3.40524e-05
3.38775e-05
3.35428e-05
3.29833e-05
3.23317e-05
3.45432e-05
7.28881e-05
7.187e-05
3.45972e-05
3.25089e-05
3.3126e-05
3.36441e-05
3.39431e-05
3.40896e-05
3.41442e-05
3.41504e-05
3.41358e-05
3.41159e-05
3.4098e-05
3.40848e-05
3.40766e-05
3.40727e-05
3.40727e-05
3.40765e-05
3.40848e-05
3.40979e-05
3.41157e-05
3.41356e-05
3.41501e-05
3.41439e-05
3.40891e-05
3.39425e-05
3.36433e-05
3.31251e-05
3.25079e-05
3.45965e-05
7.18706e-05
7.11983e-05
3.46319e-05
3.26216e-05
3.32162e-05
3.37071e-05
3.39827e-05
3.41107e-05
3.41519e-05
3.41493e-05
3.41298e-05
3.41076e-05
3.40891e-05
3.4076e-05
3.40682e-05
3.40645e-05
3.40645e-05
3.40682e-05
3.4076e-05
3.4089e-05
3.41075e-05
3.41297e-05
3.41492e-05
3.41518e-05
3.41105e-05
3.39824e-05
3.37065e-05
3.32153e-05
3.26205e-05
3.46309e-05
7.11987e-05
7.08657e-05
3.4649e-05
3.26763e-05
3.32597e-05
3.37371e-05
3.40012e-05
3.41201e-05
3.41548e-05
3.41481e-05
3.41264e-05
3.41032e-05
3.40846e-05
3.40718e-05
3.40642e-05
3.40607e-05
3.40607e-05
3.40642e-05
3.40718e-05
3.40847e-05
3.41033e-05
3.41265e-05
3.41483e-05
3.41549e-05
3.41201e-05
3.40011e-05
3.37367e-05
3.32589e-05
3.26752e-05
3.46478e-05
7.08658e-05
7.08685e-05
3.46495e-05
3.26759e-05
3.32589e-05
3.37363e-05
3.40005e-05
3.41195e-05
3.41543e-05
3.41478e-05
3.41261e-05
3.4103e-05
3.40844e-05
3.40716e-05
3.4064e-05
3.40605e-05
3.40605e-05
3.4064e-05
3.40717e-05
3.40845e-05
3.41032e-05
3.41263e-05
3.4148e-05
3.41546e-05
3.41197e-05
3.40006e-05
3.37362e-05
3.32584e-05
3.26749e-05
3.46481e-05
7.0868e-05
7.12067e-05
3.46333e-05
3.26203e-05
3.3214e-05
3.37048e-05
3.39807e-05
3.41091e-05
3.41507e-05
3.41484e-05
3.41291e-05
3.4107e-05
3.40885e-05
3.40755e-05
3.40676e-05
3.40639e-05
3.4064e-05
3.40676e-05
3.40756e-05
3.40886e-05
3.41072e-05
3.41293e-05
3.41487e-05
3.4151e-05
3.41094e-05
3.39811e-05
3.3705e-05
3.32138e-05
3.26195e-05
3.46318e-05
7.12055e-05
7.1884e-05
3.45996e-05
3.25067e-05
3.31225e-05
3.36405e-05
3.394e-05
3.40872e-05
3.41425e-05
3.41492e-05
3.41349e-05
3.41151e-05
3.40972e-05
3.4084e-05
3.40756e-05
3.40717e-05
3.40717e-05
3.40757e-05
3.4084e-05
3.40973e-05
3.41152e-05
3.4135e-05
3.41494e-05
3.41428e-05
3.40876e-05
3.39405e-05
3.36409e-05
3.31226e-05
3.25061e-05
3.45979e-05
7.18819e-05
7.2907e-05
3.45467e-05
3.23295e-05
3.29796e-05
3.35391e-05
3.38745e-05
3.40504e-05
3.41269e-05
3.41478e-05
3.4142e-05
3.41266e-05
3.41104e-05
3.40975e-05
3.40889e-05
3.40847e-05
3.40847e-05
3.40889e-05
3.40975e-05
3.41104e-05
3.41265e-05
3.41419e-05
3.41478e-05
3.4127e-05
3.40507e-05
3.3875e-05
3.35397e-05
3.298e-05
3.23291e-05
3.45449e-05
7.29038e-05
7.42846e-05
3.4473e-05
3.20804e-05
3.27779e-05
3.33942e-05
3.37779e-05
3.39925e-05
3.40981e-05
3.41394e-05
3.41465e-05
3.41386e-05
3.41263e-05
3.4115e-05
3.41069e-05
3.41028e-05
3.41028e-05
3.41069e-05
3.4115e-05
3.41262e-05
3.41383e-05
3.41461e-05
3.41389e-05
3.40977e-05
3.39923e-05
3.37781e-05
3.33947e-05
3.27784e-05
3.20801e-05
3.4471e-05
7.42804e-05
7.60283e-05
3.43769e-05
3.17481e-05
3.25077e-05
3.31965e-05
3.36404e-05
3.39031e-05
3.40459e-05
3.41142e-05
3.41399e-05
3.41439e-05
3.41388e-05
3.41315e-05
3.41256e-05
3.41224e-05
3.41224e-05
3.41256e-05
3.41316e-05
3.41386e-05
3.41435e-05
3.41392e-05
3.41132e-05
3.40448e-05
3.39022e-05
3.36399e-05
3.31965e-05
3.2508e-05
3.1748e-05
3.43748e-05
7.6023e-05
7.81515e-05
3.42585e-05
3.13194e-05
3.21557e-05
3.29326e-05
3.34461e-05
3.37655e-05
3.39529e-05
3.40553e-05
3.41061e-05
3.41279e-05
3.41348e-05
3.41353e-05
3.41338e-05
3.41327e-05
3.41327e-05
3.4134e-05
3.41354e-05
3.41348e-05
3.41274e-05
3.41051e-05
3.40537e-05
3.3951e-05
3.37636e-05
3.34446e-05
3.29318e-05
3.21556e-05
3.13191e-05
3.42564e-05
7.81452e-05
8.06578e-05
3.41204e-05
3.07764e-05
3.17003e-05
3.25784e-05
3.31716e-05
3.35538e-05
3.37917e-05
3.39348e-05
3.4018e-05
3.40645e-05
3.40897e-05
3.41028e-05
3.41092e-05
3.4112e-05
3.41121e-05
3.41096e-05
3.41032e-05
3.40899e-05
3.40642e-05
3.40169e-05
3.3933e-05
3.37891e-05
3.35508e-05
3.31688e-05
3.25763e-05
3.16992e-05
3.07757e-05
3.41184e-05
8.06511e-05
8.3429e-05
3.39821e-05
3.01168e-05
3.11309e-05
3.21134e-05
3.2785e-05
3.32294e-05
3.35209e-05
3.37109e-05
3.3834e-05
3.39132e-05
3.39638e-05
3.39954e-05
3.4014e-05
3.40228e-05
3.40231e-05
3.40148e-05
3.39964e-05
3.39646e-05
3.39135e-05
3.38333e-05
3.3709e-05
3.35178e-05
3.32255e-05
3.27808e-05
3.21097e-05
3.11284e-05
3.01153e-05
3.39805e-05
8.34244e-05
8.66027e-05
3.39436e-05
2.94521e-05
3.04626e-05
3.15018e-05
3.22293e-05
3.27302e-05
3.3079e-05
3.33241e-05
3.34965e-05
3.36172e-05
3.37011e-05
3.37576e-05
3.37928e-05
3.38099e-05
3.38103e-05
3.3794e-05
3.37592e-05
3.37027e-05
3.36184e-05
3.34967e-05
3.33229e-05
3.30762e-05
3.2726e-05
3.22242e-05
3.14968e-05
3.04587e-05
2.94499e-05
3.39423e-05
8.65988e-05
9.03233e-05
3.42422e-05
2.90108e-05
2.96475e-05
3.06338e-05
3.13971e-05
3.1962e-05
3.23831e-05
3.26985e-05
3.29325e-05
3.31049e-05
3.32305e-05
3.33184e-05
3.33746e-05
3.34022e-05
3.34027e-05
3.33761e-05
3.33207e-05
3.32331e-05
3.31073e-05
3.2934e-05
3.26986e-05
3.23814e-05
3.19585e-05
3.13921e-05
3.06283e-05
2.96427e-05
2.90081e-05
3.42417e-05
9.03211e-05
9.49076e-05
3.52917e-05
2.87211e-05
2.84722e-05
2.9329e-05
3.01595e-05
3.08261e-05
3.13528e-05
3.17629e-05
3.20756e-05
3.23121e-05
3.24881e-05
3.26135e-05
3.26943e-05
3.27342e-05
3.27348e-05
3.2696e-05
3.26161e-05
3.24913e-05
3.23154e-05
3.20784e-05
3.17645e-05
3.13528e-05
3.08243e-05
3.0156e-05
2.93245e-05
2.84681e-05
2.87187e-05
3.5293e-05
9.49086e-05
0.000101414
3.49899e-05
2.88354e-05
2.72676e-05
2.79711e-05
2.88934e-05
2.96789e-05
3.03308e-05
3.08335e-05
3.12159e-05
3.15075e-05
3.17264e-05
3.18829e-05
3.19839e-05
3.20336e-05
3.2034e-05
3.19851e-05
3.18848e-05
3.17289e-05
3.15103e-05
3.12185e-05
3.08355e-05
3.03319e-05
2.96789e-05
2.88922e-05
2.79691e-05
2.72655e-05
2.88354e-05
3.4994e-05
0.000101418
9.82999e-05
2.15642e-05
2.82901e-05
3.06751e-05
3.24402e-05
3.36021e-05
3.4337e-05
3.47695e-05
3.49998e-05
3.51327e-05
3.5217e-05
3.52712e-05
3.53059e-05
3.53266e-05
3.53363e-05
3.53361e-05
3.5326e-05
3.53048e-05
3.52699e-05
3.52154e-05
3.51311e-05
3.49979e-05
3.47676e-05
3.43351e-05
3.36004e-05
3.24391e-05
3.06751e-05
2.82926e-05
2.15652e-05
9.83096e-05
0.000259139
0.000129488
0.00010743
9.56044e-05
9.00684e-05
8.66222e-05
8.40012e-05
8.17121e-05
7.98075e-05
7.82584e-05
7.6975e-05
7.59405e-05
7.51737e-05
7.46683e-05
7.4417e-05
7.44159e-05
7.46651e-05
7.51683e-05
7.59331e-05
7.69661e-05
7.82503e-05
7.97986e-05
8.17024e-05
8.3991e-05
8.66122e-05
9.00596e-05
9.55982e-05
0.000107428
0.000129491
0.000259153
0.000210112
0.000106574
9.2576e-05
8.50145e-05
8.25634e-05
8.13233e-05
8.04511e-05
7.95222e-05
7.86626e-05
7.79619e-05
7.7493e-05
7.71825e-05
7.69583e-05
7.68099e-05
7.67362e-05
7.67371e-05
7.68127e-05
7.69629e-05
7.71892e-05
7.75014e-05
7.79695e-05
7.86715e-05
7.95331e-05
8.04668e-05
8.1339e-05
8.25762e-05
8.50218e-05
9.25737e-05
0.000106562
0.000210066
7.77868e-05
2.33583e-05
4.09175e-05
4.17841e-05
4.31046e-05
4.34022e-05
4.31125e-05
4.27743e-05
4.22932e-05
4.17846e-05
4.13357e-05
4.09829e-05
4.07274e-05
4.05622e-05
4.04813e-05
4.04814e-05
4.05627e-05
4.07283e-05
4.09838e-05
4.13365e-05
4.17851e-05
4.22938e-05
4.27751e-05
4.31128e-05
4.33985e-05
4.30973e-05
4.17721e-05
4.08976e-05
2.3345e-05
7.77579e-05
8.97986e-05
4.99577e-05
4.07918e-05
3.29138e-05
3.01823e-05
2.95896e-05
2.94139e-05
2.91714e-05
2.89467e-05
2.87511e-05
2.85921e-05
2.84756e-05
2.83986e-05
2.83518e-05
2.83295e-05
2.83289e-05
2.83498e-05
2.83951e-05
2.847e-05
2.8585e-05
2.87437e-05
2.89394e-05
2.91651e-05
2.94094e-05
2.95883e-05
3.01835e-05
3.29145e-05
4.07845e-05
4.99396e-05
8.97842e-05
8.59895e-05
4.89885e-05
3.60256e-05
2.85263e-05
2.52481e-05
2.45852e-05
2.47635e-05
2.50684e-05
2.53446e-05
2.55956e-05
2.58108e-05
2.598e-05
2.61044e-05
2.61853e-05
2.62247e-05
2.62235e-05
2.61818e-05
2.60985e-05
2.59719e-05
2.58013e-05
2.55861e-05
2.53373e-05
2.50633e-05
2.4762e-05
2.45883e-05
2.52549e-05
2.85303e-05
3.60189e-05
4.89661e-05
8.59778e-05
8.44745e-05
4.50705e-05
3.22395e-05
2.61146e-05
2.42505e-05
2.42034e-05
2.46777e-05
2.51952e-05
2.56342e-05
2.5993e-05
2.62791e-05
2.64969e-05
2.66531e-05
2.67529e-05
2.6801e-05
2.68e-05
2.67498e-05
2.66482e-05
2.64908e-05
2.62725e-05
2.59873e-05
2.56307e-05
2.51947e-05
2.46814e-05
2.42113e-05
2.426e-05
2.61216e-05
3.22378e-05
4.50532e-05
8.44696e-05
8.33161e-05
4.18932e-05
2.9973e-05
2.51834e-05
2.44286e-05
2.48422e-05
2.54553e-05
2.60145e-05
2.64709e-05
2.68293e-05
2.71046e-05
2.73101e-05
2.74554e-05
2.75478e-05
2.75923e-05
2.75916e-05
2.75458e-05
2.74524e-05
2.73066e-05
2.71015e-05
2.68275e-05
2.64714e-05
2.6018e-05
2.54621e-05
2.48516e-05
2.44384e-05
2.51892e-05
2.99713e-05
4.18806e-05
8.33149e-05
8.21315e-05
3.99119e-05
2.83341e-05
2.4887e-05
2.48912e-05
2.55532e-05
2.62262e-05
2.67847e-05
2.72212e-05
2.75524e-05
2.77988e-05
2.79773e-05
2.81009e-05
2.81783e-05
2.82154e-05
2.8215e-05
2.81772e-05
2.80993e-05
2.79759e-05
2.77981e-05
2.75532e-05
2.7224e-05
2.67898e-05
2.62335e-05
2.55618e-05
2.4899e-05
2.4891e-05
2.83328e-05
3.99085e-05
8.21316e-05
8.11294e-05
3.86761e-05
2.73679e-05
2.49155e-05
2.53544e-05
2.61519e-05
2.68466e-05
2.73898e-05
2.77969e-05
2.80942e-05
2.83069e-05
2.84554e-05
2.85548e-05
2.86156e-05
2.86444e-05
2.86442e-05
2.86152e-05
2.85544e-05
2.84553e-05
2.83077e-05
2.80962e-05
2.78005e-05
2.7395e-05
2.6853e-05
2.61586e-05
2.53603e-05
2.49193e-05
2.73682e-05
3.86751e-05
8.11296e-05
8.04708e-05
3.78438e-05
2.68997e-05
2.51739e-05
2.58045e-05
2.664e-05
2.7326e-05
2.78415e-05
2.82135e-05
2.84745e-05
2.8653e-05
2.87719e-05
2.8848e-05
2.8893e-05
2.89137e-05
2.89137e-05
2.8893e-05
2.88482e-05
2.87725e-05
2.86543e-05
2.84768e-05
2.8217e-05
2.78459e-05
2.7331e-05
2.6645e-05
2.58089e-05
2.51774e-05
2.69012e-05
3.78441e-05
8.04709e-05
7.98905e-05
3.72618e-05
2.66841e-05
2.54697e-05
2.61999e-05
2.70322e-05
2.76907e-05
2.81703e-05
2.85045e-05
2.87292e-05
2.88752e-05
2.89671e-05
2.90225e-05
2.90535e-05
2.90673e-05
2.90673e-05
2.90537e-05
2.90229e-05
2.89679e-05
2.88767e-05
2.87312e-05
2.85073e-05
2.81736e-05
2.76942e-05
2.70357e-05
2.62032e-05
2.5473e-05
2.66865e-05
3.7263e-05
7.98908e-05
7.93828e-05
3.68517e-05
2.65964e-05
2.57315e-05
2.65165e-05
2.73358e-05
2.79621e-05
2.84046e-05
2.8702e-05
2.8893e-05
2.90103e-05
2.9079e-05
2.91171e-05
2.91367e-05
2.91449e-05
2.91449e-05
2.91369e-05
2.91175e-05
2.90797e-05
2.90114e-05
2.88946e-05
2.87039e-05
2.84068e-05
2.79644e-05
2.73381e-05
2.6519e-05
2.57348e-05
2.65995e-05
3.68534e-05
7.93837e-05
7.89597e-05
3.65666e-05
2.65751e-05
2.5947e-05
2.67601e-05
2.75623e-05
2.81583e-05
2.85672e-05
2.88322e-05
2.89946e-05
2.9088e-05
2.91381e-05
2.91628e-05
2.91738e-05
2.91778e-05
2.91778e-05
2.91739e-05
2.91631e-05
2.91386e-05
2.90887e-05
2.89954e-05
2.88332e-05
2.85682e-05
2.81594e-05
2.75637e-05
2.6762e-05
2.59502e-05
2.65785e-05
3.65689e-05
7.89615e-05
7.86317e-05
3.63755e-05
2.65842e-05
2.61129e-05
2.69385e-05
2.77235e-05
2.82939e-05
2.86755e-05
2.89148e-05
2.90549e-05
2.91303e-05
2.91667e-05
2.91818e-05
2.91867e-05
2.91878e-05
2.91878e-05
2.91867e-05
2.91819e-05
2.91668e-05
2.91304e-05
2.9055e-05
2.89149e-05
2.86756e-05
2.8294e-05
2.7724e-05
2.69398e-05
2.61157e-05
2.65878e-05
3.63784e-05
7.86346e-05
7.84069e-05
3.62585e-05
2.66012e-05
2.62261e-05
2.70564e-05
2.78276e-05
2.83794e-05
2.87418e-05
2.89634e-05
2.90883e-05
2.91517e-05
2.91792e-05
2.91881e-05
2.91893e-05
2.91885e-05
2.91885e-05
2.91892e-05
2.91879e-05
2.91789e-05
2.91513e-05
2.90878e-05
2.89627e-05
2.8741e-05
2.83787e-05
2.78272e-05
2.70568e-05
2.62282e-05
2.66048e-05
3.62623e-05
7.8411e-05
7.82911e-05
3.62039e-05
2.66135e-05
2.62841e-05
2.71159e-05
2.78796e-05
2.84215e-05
2.87738e-05
2.89862e-05
2.91034e-05
2.91607e-05
2.91838e-05
2.91898e-05
2.91891e-05
2.91875e-05
2.91874e-05
2.91889e-05
2.91894e-05
2.91832e-05
2.91599e-05
2.91023e-05
2.89849e-05
2.87723e-05
2.84199e-05
2.78782e-05
2.71154e-05
2.62854e-05
2.66171e-05
3.6209e-05
7.82966e-05
7.82879e-05
3.62032e-05
2.66146e-05
2.62864e-05
2.71182e-05
2.78815e-05
2.8423e-05
2.8775e-05
2.8987e-05
2.9104e-05
2.91611e-05
2.91842e-05
2.91901e-05
2.91894e-05
2.91878e-05
2.91877e-05
2.91891e-05
2.91896e-05
2.91834e-05
2.91601e-05
2.91025e-05
2.89852e-05
2.87728e-05
2.84206e-05
2.78792e-05
2.71165e-05
2.62864e-05
2.66176e-05
3.62088e-05
7.82954e-05
7.83972e-05
3.62567e-05
2.66046e-05
2.62329e-05
2.70632e-05
2.78334e-05
2.83839e-05
2.87451e-05
2.89657e-05
2.909e-05
2.9153e-05
2.91803e-05
2.91892e-05
2.91903e-05
2.91895e-05
2.91894e-05
2.919e-05
2.91886e-05
2.91794e-05
2.91518e-05
2.90884e-05
2.89636e-05
2.87424e-05
2.83808e-05
2.783e-05
2.70602e-05
2.62315e-05
2.66065e-05
3.62619e-05
7.84071e-05
7.86154e-05
3.63726e-05
2.659e-05
2.61244e-05
2.69497e-05
2.77326e-05
2.83007e-05
2.86803e-05
2.89181e-05
2.90573e-05
2.91322e-05
2.91685e-05
2.91836e-05
2.91885e-05
2.91895e-05
2.91894e-05
2.91881e-05
2.9183e-05
2.91676e-05
2.91311e-05
2.90558e-05
2.89161e-05
2.86775e-05
2.82971e-05
2.77284e-05
2.69453e-05
2.61213e-05
2.65907e-05
3.63779e-05
7.86278e-05
7.89368e-05
3.65628e-05
2.65837e-05
2.59632e-05
2.67751e-05
2.75739e-05
2.81664e-05
2.85725e-05
2.88357e-05
2.8997e-05
2.90901e-05
2.91403e-05
2.91652e-05
2.91764e-05
2.91804e-05
2.91802e-05
2.9176e-05
2.91647e-05
2.91396e-05
2.90893e-05
2.8996e-05
2.88342e-05
2.85702e-05
2.8163e-05
2.75693e-05
2.67695e-05
2.59583e-05
2.65831e-05
3.65682e-05
7.89517e-05
7.93533e-05
3.68473e-05
2.66077e-05
2.57518e-05
2.6534e-05
2.73483e-05
2.79699e-05
2.8409e-05
2.87045e-05
2.88948e-05
2.90122e-05
2.90815e-05
2.91202e-05
2.91403e-05
2.91486e-05
2.91485e-05
2.91399e-05
2.91197e-05
2.9081e-05
2.90119e-05
2.88945e-05
2.8704e-05
2.84078e-05
2.79674e-05
2.73439e-05
2.65279e-05
2.57453e-05
2.66058e-05
3.68527e-05
7.93707e-05
7.98545e-05
3.72573e-05
2.6698e-05
2.54927e-05
2.62178e-05
2.7043e-05
2.76958e-05
2.81719e-05
2.85048e-05
2.87296e-05
2.88767e-05
2.897e-05
2.90266e-05
2.90585e-05
2.90726e-05
2.90724e-05
2.90579e-05
2.9026e-05
2.89696e-05
2.88768e-05
2.87302e-05
2.85058e-05
2.81727e-05
2.76954e-05
2.70404e-05
2.62123e-05
2.54854e-05
2.6695e-05
3.72624e-05
7.98743e-05
8.04289e-05
3.78401e-05
2.69155e-05
2.51967e-05
2.58191e-05
2.66455e-05
2.73255e-05
2.78383e-05
2.82105e-05
2.84732e-05
2.86542e-05
2.87756e-05
2.88537e-05
2.88999e-05
2.89211e-05
2.89208e-05
2.8899e-05
2.88526e-05
2.87748e-05
2.86543e-05
2.84747e-05
2.82133e-05
2.78419e-05
2.73286e-05
2.66463e-05
2.58161e-05
2.51902e-05
2.69119e-05
3.78444e-05
8.04507e-05
8.10839e-05
3.86748e-05
2.73835e-05
2.49328e-05
2.536e-05
2.61476e-05
2.68376e-05
2.73805e-05
2.77902e-05
2.80915e-05
2.83085e-05
2.84607e-05
2.85629e-05
2.86253e-05
2.86546e-05
2.8654e-05
2.86236e-05
2.85607e-05
2.84588e-05
2.8308e-05
2.80932e-05
2.77944e-05
2.7387e-05
2.68452e-05
2.6154e-05
2.53623e-05
2.49295e-05
2.73802e-05
3.86773e-05
8.11065e-05
8.20981e-05
3.99141e-05
2.83462e-05
2.48918e-05
2.48823e-05
2.55357e-05
2.62073e-05
2.67692e-05
2.72118e-05
2.75497e-05
2.78021e-05
2.79855e-05
2.81124e-05
2.81916e-05
2.82291e-05
2.82281e-05
2.81887e-05
2.81083e-05
2.79815e-05
2.77996e-05
2.75501e-05
2.72161e-05
2.67779e-05
2.62193e-05
2.55488e-05
2.48923e-05
2.48946e-05
2.8344e-05
3.99136e-05
8.2116e-05
8.3285e-05
4.19038e-05
2.99794e-05
2.51746e-05
2.44032e-05
2.48113e-05
2.54278e-05
2.59953e-05
2.64615e-05
2.68291e-05
2.71119e-05
2.73228e-05
2.74714e-05
2.75653e-05
2.76099e-05
2.76083e-05
2.75606e-05
2.74645e-05
2.73152e-05
2.71055e-05
2.68259e-05
2.64635e-05
2.60036e-05
2.54423e-05
2.48299e-05
2.44209e-05
2.51836e-05
2.99773e-05
4.1893e-05
8.32997e-05
8.44437e-05
4.5095e-05
3.2244e-05
2.60961e-05
2.42161e-05
2.41646e-05
2.46479e-05
2.51785e-05
2.56296e-05
2.59985e-05
2.62923e-05
2.65149e-05
2.66734e-05
2.67739e-05
2.68216e-05
2.68193e-05
2.67672e-05
2.66631e-05
2.65024e-05
2.628e-05
2.59892e-05
2.56258e-05
2.51819e-05
2.466e-05
2.4184e-05
2.42353e-05
2.61079e-05
3.2241e-05
4.5072e-05
8.44529e-05
8.59812e-05
4.9037e-05
3.60387e-05
2.8513e-05
2.52152e-05
2.4556e-05
2.47455e-05
2.50622e-05
2.53483e-05
2.56083e-05
2.58288e-05
2.60003e-05
2.61253e-05
2.62059e-05
2.62443e-05
2.62415e-05
2.61979e-05
2.61125e-05
2.59839e-05
2.58109e-05
2.55922e-05
2.53381e-05
2.50577e-05
2.47483e-05
2.45665e-05
2.523e-05
2.8519e-05
3.60256e-05
4.89981e-05
8.59739e-05
8.98289e-05
5.0023e-05
4.08123e-05
3.29126e-05
3.01762e-05
2.95873e-05
2.94146e-05
2.91764e-05
2.89552e-05
2.87617e-05
2.86028e-05
2.8485e-05
2.8407e-05
2.83597e-05
2.83368e-05
2.83352e-05
2.83549e-05
2.83989e-05
2.84738e-05
2.85897e-05
2.8749e-05
2.89442e-05
2.91679e-05
2.94092e-05
2.95854e-05
3.01771e-05
3.29113e-05
4.07959e-05
4.99789e-05
8.98038e-05
7.7825e-05
2.33972e-05
4.09521e-05
4.18232e-05
4.31377e-05
4.34253e-05
4.31201e-05
4.27768e-05
4.22931e-05
4.17827e-05
4.13316e-05
4.09769e-05
4.07206e-05
4.0555e-05
4.04739e-05
4.04742e-05
4.05559e-05
4.0722e-05
4.09786e-05
4.1333e-05
4.17836e-05
4.22938e-05
4.2777e-05
4.3118e-05
4.34142e-05
4.31191e-05
4.1799e-05
4.09252e-05
2.33735e-05
7.77902e-05
0.000210225
0.000106635
9.26021e-05
8.50162e-05
8.25459e-05
8.12926e-05
8.04138e-05
7.94929e-05
7.86336e-05
7.79317e-05
7.74494e-05
7.71383e-05
7.69154e-05
7.67686e-05
7.66964e-05
7.66987e-05
7.67754e-05
7.69266e-05
7.71537e-05
7.74681e-05
7.79486e-05
7.86523e-05
7.95138e-05
8.04415e-05
8.13181e-05
8.25643e-05
8.50231e-05
9.25925e-05
0.000106603
0.00021015
0.000188964
9.4768e-05
8.3423e-05
7.74525e-05
7.58329e-05
7.50954e-05
7.45246e-05
7.39247e-05
7.34468e-05
7.30657e-05
7.27166e-05
7.2421e-05
7.22037e-05
7.20617e-05
7.19909e-05
7.19893e-05
7.20568e-05
7.21957e-05
7.24103e-05
7.27038e-05
7.30527e-05
7.34331e-05
7.39114e-05
7.45107e-05
7.50867e-05
7.5832e-05
7.74621e-05
8.34466e-05
9.48119e-05
0.000189066
7.11453e-05
3.10654e-05
5.15097e-05
5.45752e-05
5.74888e-05
5.96686e-05
6.08364e-05
6.08875e-05
6.02241e-05
5.92087e-05
5.81291e-05
5.71662e-05
5.64108e-05
5.58989e-05
5.56413e-05
5.56406e-05
5.58969e-05
5.64082e-05
5.71639e-05
5.81282e-05
5.92097e-05
6.02267e-05
6.08953e-05
6.08527e-05
5.9695e-05
5.75218e-05
5.46112e-05
5.15457e-05
3.11083e-05
7.11968e-05
8.2152e-05
5.72999e-05
5.09904e-05
4.46725e-05
4.02957e-05
3.80112e-05
3.66585e-05
3.56681e-05
3.48492e-05
3.41117e-05
3.34608e-05
3.29334e-05
3.25436e-05
3.22908e-05
3.2167e-05
3.21671e-05
3.22909e-05
3.25439e-05
3.29342e-05
3.34623e-05
3.41139e-05
3.48543e-05
3.56868e-05
3.66808e-05
3.80322e-05
4.03141e-05
4.46902e-05
5.1017e-05
5.73521e-05
8.21912e-05
7.87482e-05
6.03842e-05
4.9136e-05
3.68731e-05
2.99256e-05
2.70334e-05
2.6013e-05
2.56528e-05
2.54697e-05
2.52621e-05
2.50456e-05
2.48698e-05
2.47439e-05
2.46659e-05
2.46296e-05
2.46309e-05
2.46699e-05
2.47504e-05
2.48785e-05
2.50557e-05
2.52721e-05
2.54761e-05
2.56585e-05
2.60173e-05
2.70363e-05
2.99293e-05
3.68859e-05
4.91683e-05
6.04402e-05
7.87756e-05
7.7227e-05
5.84026e-05
4.3968e-05
3.1518e-05
2.54698e-05
2.30173e-05
2.22368e-05
2.21607e-05
2.22857e-05
2.24248e-05
2.25351e-05
2.26303e-05
2.27047e-05
2.27583e-05
2.27871e-05
2.27887e-05
2.27631e-05
2.27122e-05
2.26395e-05
2.25443e-05
2.24312e-05
2.22888e-05
2.21605e-05
2.22328e-05
2.30114e-05
2.54689e-05
3.1526e-05
4.39936e-05
5.84407e-05
7.72366e-05
7.63412e-05
5.67174e-05
3.86847e-05
2.79782e-05
2.34289e-05
2.17602e-05
2.14894e-05
2.17271e-05
2.2068e-05
2.23757e-05
2.26187e-05
2.28033e-05
2.29371e-05
2.30252e-05
2.30695e-05
2.30707e-05
2.30284e-05
2.29418e-05
2.28085e-05
2.26228e-05
2.23769e-05
2.20654e-05
2.17201e-05
2.14786e-05
2.17497e-05
2.34215e-05
2.79799e-05
3.87016e-05
5.67385e-05
7.63381e-05
7.57568e-05
5.45016e-05
3.46129e-05
2.58607e-05
2.24445e-05
2.16035e-05
2.1753e-05
2.2151e-05
2.25631e-05
2.29161e-05
2.31946e-05
2.34035e-05
2.35518e-05
2.3647e-05
2.3694e-05
2.36946e-05
2.36487e-05
2.35539e-05
2.34052e-05
2.31949e-05
2.29138e-05
2.25576e-05
2.21421e-05
2.17416e-05
2.15922e-05
2.24375e-05
2.58612e-05
3.46224e-05
5.45059e-05
7.57458e-05
7.52667e-05
5.21617e-05
3.20159e-05
2.45903e-05
2.20536e-05
2.18204e-05
2.22102e-05
2.2699e-05
2.31422e-05
2.35043e-05
2.37834e-05
2.3989e-05
2.41323e-05
2.42228e-05
2.42667e-05
2.42669e-05
2.42234e-05
2.41328e-05
2.39888e-05
2.37819e-05
2.35008e-05
2.31364e-05
2.26913e-05
2.22017e-05
2.1813e-05
2.20495e-05
2.45897e-05
3.20156e-05
5.21574e-05
7.52514e-05
7.47454e-05
4.98921e-05
3.03515e-05
2.3715e-05
2.19428e-05
2.21106e-05
2.26479e-05
2.31876e-05
2.36421e-05
2.39985e-05
2.42655e-05
2.44574e-05
2.45882e-05
2.46692e-05
2.47079e-05
2.47079e-05
2.46692e-05
2.45879e-05
2.44565e-05
2.42636e-05
2.39953e-05
2.36377e-05
2.31826e-05
2.26432e-05
2.21078e-05
2.19427e-05
2.37151e-05
3.03501e-05
4.98831e-05
7.47278e-05
7.43267e-05
4.78978e-05
2.92478e-05
2.32447e-05
2.20392e-05
2.24107e-05
2.3024e-05
2.35848e-05
2.40361e-05
2.43784e-05
2.46271e-05
2.48008e-05
2.49161e-05
2.49857e-05
2.50184e-05
2.50184e-05
2.49855e-05
2.49156e-05
2.47999e-05
2.46256e-05
2.43762e-05
2.40336e-05
2.35826e-05
2.30229e-05
2.24116e-05
2.20421e-05
2.32458e-05
2.92465e-05
4.78849e-05
7.43076e-05
7.40035e-05
4.62724e-05
2.84997e-05
2.30067e-05
2.21991e-05
2.26841e-05
2.33309e-05
2.38934e-05
2.4332e-05
2.46551e-05
2.48831e-05
2.50374e-05
2.51366e-05
2.51949e-05
2.52217e-05
2.52217e-05
2.51947e-05
2.51363e-05
2.50368e-05
2.48823e-05
2.46543e-05
2.43314e-05
2.38935e-05
2.33325e-05
2.26875e-05
2.22038e-05
2.30085e-05
2.84984e-05
4.62568e-05
7.39833e-05
7.37626e-05
4.50347e-05
2.79898e-05
2.28891e-05
2.23562e-05
2.29097e-05
2.35691e-05
2.41234e-05
2.4545e-05
2.48478e-05
2.50554e-05
2.51915e-05
2.5276e-05
2.53242e-05
2.53458e-05
2.53458e-05
2.53241e-05
2.5276e-05
2.51915e-05
2.50555e-05
2.48482e-05
2.4546e-05
2.41254e-05
2.35725e-05
2.29146e-05
2.23615e-05
2.28906e-05
2.79877e-05
4.50176e-05
7.37418e-05
7.35929e-05
4.41602e-05
2.7653e-05
2.28314e-05
2.24827e-05
2.30789e-05
2.37418e-05
2.42852e-05
2.46903e-05
2.49749e-05
2.51651e-05
2.5286e-05
2.53585e-05
2.53985e-05
2.5416e-05
2.5416e-05
2.53986e-05
2.53588e-05
2.52865e-05
2.51659e-05
2.49763e-05
2.46925e-05
2.42885e-05
2.37464e-05
2.30846e-05
2.24882e-05
2.28329e-05
2.76506e-05
4.41432e-05
7.35719e-05
7.34873e-05
4.36149e-05
2.74554e-05
2.28063e-05
2.25691e-05
2.31902e-05
2.38532e-05
2.43874e-05
2.47799e-05
2.5051e-05
2.52286e-05
2.53388e-05
2.5403e-05
2.54372e-05
2.54519e-05
2.5452e-05
2.54376e-05
2.54036e-05
2.53397e-05
2.52301e-05
2.50532e-05
2.4783e-05
2.43917e-05
2.38585e-05
2.31964e-05
2.25749e-05
2.28081e-05
2.74535e-05
4.36008e-05
7.34667e-05
7.34418e-05
4.33932e-05
2.73706e-05
2.27981e-05
2.26119e-05
2.32444e-05
2.39069e-05
2.44362e-05
2.4822e-05
2.50862e-05
2.52573e-05
2.53619e-05
2.54219e-05
2.54532e-05
2.54665e-05
2.54666e-05
2.54537e-05
2.54227e-05
2.53632e-05
2.52593e-05
2.5089e-05
2.48258e-05
2.44411e-05
2.39129e-05
2.32511e-05
2.26183e-05
2.2801e-05
2.73709e-05
4.33901e-05
7.34225e-05
7.34459e-05
4.33931e-05
2.737e-05
2.2796e-05
2.26093e-05
2.3242e-05
2.3905e-05
2.44348e-05
2.4821e-05
2.50854e-05
2.52567e-05
2.53614e-05
2.54214e-05
2.54528e-05
2.54661e-05
2.54663e-05
2.54534e-05
2.54224e-05
2.53629e-05
2.52589e-05
2.50885e-05
2.48252e-05
2.44403e-05
2.39117e-05
2.32495e-05
2.26164e-05
2.27997e-05
2.73706e-05
4.33906e-05
7.34252e-05
7.34999e-05
4.36168e-05
2.74541e-05
2.27999e-05
2.25612e-05
2.31833e-05
2.38478e-05
2.43834e-05
2.47769e-05
2.50487e-05
2.52268e-05
2.53372e-05
2.54015e-05
2.54359e-05
2.54506e-05
2.54508e-05
2.54365e-05
2.54026e-05
2.53388e-05
2.52291e-05
2.5052e-05
2.47813e-05
2.43892e-05
2.3855e-05
2.31916e-05
2.25693e-05
2.28041e-05
2.74529e-05
4.36036e-05
7.34754e-05
7.36137e-05
4.41636e-05
2.76509e-05
2.28207e-05
2.24696e-05
2.30679e-05
2.37334e-05
2.42791e-05
2.46857e-05
2.49714e-05
2.51621e-05
2.52833e-05
2.53561e-05
2.53961e-05
2.54137e-05
2.54139e-05
2.53967e-05
2.53571e-05
2.52849e-05
2.51643e-05
2.49744e-05
2.46899e-05
2.42848e-05
2.37409e-05
2.3077e-05
2.24792e-05
2.28264e-05
2.76497e-05
4.41478e-05
7.35861e-05
7.37911e-05
4.50389e-05
2.79869e-05
2.28738e-05
2.23384e-05
2.28953e-05
2.35586e-05
2.4116e-05
2.45396e-05
2.48435e-05
2.50516e-05
2.51878e-05
2.52723e-05
2.53204e-05
2.53421e-05
2.53424e-05
2.5321e-05
2.52733e-05
2.51891e-05
2.50533e-05
2.48459e-05
2.4543e-05
2.4121e-05
2.35659e-05
2.2905e-05
2.23496e-05
2.28819e-05
2.79869e-05
4.50232e-05
7.37607e-05
7.40387e-05
4.62768e-05
2.84968e-05
2.29877e-05
2.21779e-05
2.2668e-05
2.33199e-05
2.3886e-05
2.43267e-05
2.46506e-05
2.48786e-05
2.50326e-05
2.51314e-05
2.51894e-05
2.52162e-05
2.52164e-05
2.519e-05
2.51322e-05
2.50335e-05
2.48796e-05
2.46517e-05
2.43285e-05
2.38893e-05
2.33257e-05
2.26772e-05
2.21903e-05
2.29985e-05
2.84991e-05
4.62628e-05
7.40062e-05
7.43674e-05
4.79017e-05
2.92444e-05
2.32229e-05
2.2017e-05
2.23956e-05
2.3015e-05
2.35794e-05
2.40321e-05
2.43742e-05
2.4622e-05
2.47945e-05
2.49087e-05
2.49777e-05
2.50103e-05
2.50106e-05
2.49785e-05
2.49096e-05
2.47952e-05
2.46221e-05
2.43737e-05
2.40314e-05
2.35796e-05
2.30176e-05
2.24024e-05
2.20288e-05
2.32355e-05
2.92481e-05
4.78908e-05
7.43331e-05
7.47897e-05
4.98951e-05
3.03476e-05
2.36931e-05
2.19235e-05
2.21006e-05
2.26442e-05
2.31863e-05
2.36403e-05
2.39949e-05
2.42594e-05
2.44488e-05
2.45777e-05
2.46576e-05
2.4696e-05
2.46965e-05
2.46588e-05
2.45792e-05