/*--------------------------------*- C++ -*----------------------------------*\
| =========                 |                                                 |
| \\      /  F ield         | OpenFOAM: The Open Source CFD Toolbox           |
|  \\    /   O peration     | Version:  2312                                  |
|   \\  /    A nd           | Website:  www.openfoam.com                      |
|    \\/     M anipulation  |                                                 |
\*---------------------------------------------------------------------------*/
FoamFile
{
    version     2.0;
    format      ascii;
    arch        "LSB;label=32;scalar=64";
    class       volScalarField;
    location    "300";
    object      nut;
}
// * * * * * * * * * * * * * * * * * * * * * * * * * * * * * * * * * * * * * //

dimensions      [0 2 -1 0 0 0 0];

internalField   nonuniform List<scalar> 
27000
(
3.95214e-06
6.7067e-06
9.36356e-06
1.17393e-05
1.40471e-05
1.62009e-05
1.81558e-05
1.98067e-05
2.12265e-05
2.24388e-05
2.34386e-05
2.42302e-05
2.4821e-05
2.52137e-05
2.54097e-05
2.54096e-05
2.52134e-05
2.48204e-05
2.42294e-05
2.34376e-05
2.2438e-05
2.12256e-05
1.98058e-05
1.8155e-05
1.62002e-05
1.40467e-05
1.1739e-05
9.36358e-06
6.7069e-06
3.95231e-06
5.75267e-06
1.28197e-06
5.15994e-06
9.07983e-06
1.31663e-05
1.70473e-05
2.0713e-05
2.41218e-05
2.72098e-05
2.99568e-05
3.23451e-05
3.43342e-05
3.58716e-05
3.69181e-05
3.74479e-05
3.74483e-05
3.69192e-05
3.58734e-05
3.43364e-05
3.23474e-05
2.99587e-05
2.72116e-05
2.41235e-05
2.07146e-05
1.70488e-05
1.31675e-05
9.08059e-06
5.16058e-06
1.28217e-06
5.75293e-06
9.22753e-06
7.14341e-06
1.45109e-05
2.61378e-05
3.68751e-05
4.62386e-05
5.48003e-05
6.28304e-05
7.01476e-05
7.66161e-05
8.2164e-05
8.67233e-05
9.02149e-05
9.25772e-05
9.37687e-05
9.37697e-05
9.25799e-05
9.02189e-05
8.67283e-05
8.21682e-05
7.66178e-05
7.01474e-05
6.28289e-05
5.47985e-05
4.62368e-05
3.68731e-05
2.61343e-05
1.45084e-05
7.14389e-06
9.2277e-06
1.2155e-05
1.08438e-05
2.60478e-05
5.26433e-05
7.82779e-05
9.63843e-05
0.000109862
0.000120908
0.00013024
0.000138017
0.00014441
0.000149501
0.00015331
0.000155847
0.000157116
0.000157116
0.000155849
0.000153312
0.000149502
0.000144409
0.000138013
0.000130233
0.000120899
0.000109854
9.63784e-05
7.8272e-05
5.26346e-05
2.60419e-05
1.08443e-05
1.21551e-05
1.49188e-05
1.44797e-05
3.68704e-05
7.62059e-05
0.000113347
0.000139205
0.00015603
0.000167832
0.000176755
0.000183269
0.000188287
0.000192195
0.000195061
0.000196947
0.000197884
0.000197884
0.000196948
0.000195061
0.000192194
0.000188285
0.00018327
0.000176751
0.000167825
0.000156023
0.000139199
0.000113338
7.61931e-05
3.68632e-05
1.448e-05
1.49189e-05
1.74789e-05
1.84196e-05
4.77041e-05
9.52478e-05
0.000137855
0.000167245
0.000185438
0.000196817
0.000204333
0.000209441
0.000213024
0.000215601
0.00021741
0.00021857
0.000219138
0.000219138
0.000218569
0.000217409
0.000215599
0.000213021
0.000209437
0.000204326
0.000196809
0.00018543
0.000167234
0.000137842
9.52336e-05
4.76968e-05
1.84199e-05
1.74788e-05
1.98109e-05
2.25664e-05
5.85937e-05
0.000111506
0.00015576
0.000185119
0.000202857
0.000213223
0.000219369
0.00022312
0.000225487
0.000227028
0.000228033
0.000228647
0.000228941
0.00022894
0.000228646
0.000228031
0.000227025
0.000225483
0.000223115
0.000219362
0.000213215
0.000202848
0.000185108
0.000155746
0.000111493
5.85881e-05
2.25671e-05
1.98109e-05
2.18951e-05
2.67666e-05
6.91476e-05
0.0001256
0.000169849
0.00019734
0.000213364
0.000222264
0.000227112
0.000229752
0.00023121
0.000232034
0.000232508
0.000232772
0.000232891
0.000232891
0.000232771
0.000232506
0.000232031
0.000231206
0.000229746
0.000227105
0.000222256
0.000213354
0.000197328
0.000169834
0.000125588
6.91439e-05
2.67675e-05
2.18951e-05
2.37084e-05
3.08927e-05
7.90113e-05
0.000137683
0.000180978
0.000206056
0.00021998
0.000227296
0.000230969
0.000232737
0.000233552
0.000233911
0.000234062
0.000234122
0.000234142
0.000234142
0.00023412
0.00023406
0.000233908
0.000233547
0.000232731
0.000230962
0.000227288
0.000219971
0.000206045
0.000180966
0.000137675
7.90097e-05
3.08937e-05
2.37084e-05
2.5263e-05
3.4784e-05
8.7954e-05
0.000147805
0.000188834
0.000212103
0.000224212
0.00023014
0.000232843
0.000233955
0.000234333
0.000234406
0.000234375
0.000234328
0.000234299
0.000234298
0.000234327
0.000234373
0.000234403
0.000234329
0.000233949
0.000232837
0.000230133
0.000224204
0.000212096
0.000188827
0.000147801
8.79546e-05
3.47851e-05
2.52631e-05
2.65591e-05
3.82866e-05
9.57606e-05
0.000156281
0.000195376
0.000216548
0.000227015
0.000231788
0.000233735
0.000234375
0.00023447
0.000234377
0.000234252
0.000234155
0.000234105
0.000234105
0.000234154
0.00023425
0.000234374
0.000234466
0.000234371
0.00023373
0.000231783
0.00022701
0.000216543
0.000195373
0.000156281
9.57632e-05
3.82878e-05
2.65591e-05
2.7596e-05
4.12646e-05
0.000102216
0.000163045
0.000200476
0.00021983
0.000228918
0.000232774
0.000234156
0.00023447
0.000234386
0.000234204
0.000234038
0.000233924
0.000233868
0.000233868
0.000233923
0.000234036
0.000234201
0.000234384
0.000234467
0.000234153
0.000232771
0.000228915
0.000219828
0.000200475
0.000163046
0.00010222
4.1266e-05
2.7596e-05
2.83737e-05
4.36034e-05
0.000107171
0.000168119
0.000204193
0.000222141
0.000230185
0.000233368
0.000234353
0.000234453
0.000234264
0.000234037
0.000233857
0.000233742
0.000233687
0.000233687
0.000233741
0.000233856
0.000234035
0.000234262
0.000234451
0.000234351
0.000233366
0.000230184
0.000222141
0.000204194
0.00016812
0.000107177
4.3605e-05
2.83737e-05
2.88924e-05
4.52132e-05
0.000110526
0.000171512
0.000206616
0.00022361
0.000230961
0.000233707
0.000234443
0.000234414
0.000234168
0.000233921
0.000233739
0.000233628
0.000233577
0.000233577
0.000233628
0.000233739
0.000233921
0.000234167
0.000234414
0.000234443
0.000233706
0.000230962
0.000223611
0.000206618
0.000171513
0.000110533
4.5215e-05
2.88923e-05
2.91521e-05
4.60325e-05
0.000112214
0.0001732
0.000207806
0.00022432
0.000231328
0.00023386
0.000234477
0.000234389
0.000234118
0.000233864
0.000233683
0.000233575
0.000233526
0.000233526
0.000233575
0.000233683
0.000233864
0.000234118
0.000234389
0.000234478
0.000233861
0.00023133
0.000224323
0.000207809
0.000173203
0.000112222
4.60346e-05
2.91519e-05
2.91527e-05
4.6031e-05
0.00011221
0.000173194
0.000207802
0.000224318
0.000231326
0.000233858
0.000234476
0.000234388
0.000234117
0.000233863
0.000233682
0.000233574
0.000233524
0.000233524
0.000233574
0.000233682
0.000233864
0.000234117
0.000234389
0.000234478
0.000233861
0.000231329
0.000224322
0.000207807
0.0001732
0.000112219
4.60334e-05
2.91523e-05
2.88942e-05
4.52088e-05
0.000110512
0.000171494
0.000206604
0.000223603
0.000230956
0.000233703
0.00023444
0.000234412
0.000234165
0.000233919
0.000233736
0.000233625
0.000233573
0.000233573
0.000233625
0.000233736
0.000233919
0.000234166
0.000234413
0.000234441
0.000233705
0.00023096
0.000223608
0.000206612
0.000171503
0.000110523
4.52115e-05
2.88936e-05
2.83767e-05
4.35966e-05
0.00010715
0.000168093
0.000204178
0.000222133
0.00023018
0.000233364
0.00023435
0.00023445
0.000234261
0.000234033
0.000233852
0.000233736
0.000233681
0.000233681
0.000233736
0.000233852
0.000234033
0.00023426
0.00023445
0.000234351
0.000233365
0.000230183
0.000222138
0.000204187
0.000168105
0.000107162
4.35994e-05
2.83758e-05
2.75998e-05
4.1256e-05
0.000102189
0.000163019
0.000200461
0.000219823
0.000228915
0.000232772
0.000234155
0.000234469
0.000234384
0.0002342
0.000234032
0.000233917
0.00023386
0.00023386
0.000233917
0.000234031
0.000234198
0.000234382
0.000234467
0.000234154
0.000232772
0.000228916
0.000219827
0.00020047
0.000163032
0.000102202
4.12589e-05
2.75988e-05
2.65637e-05
3.82771e-05
9.57318e-05
0.000156257
0.000195365
0.000216545
0.000227016
0.000231791
0.000233738
0.000234377
0.000234469
0.000234374
0.000234246
0.000234147
0.000234096
0.000234095
0.000234146
0.000234245
0.000234371
0.000234466
0.000234373
0.000233734
0.000231788
0.000227015
0.000216547
0.000195372
0.000156269
9.57434e-05
3.82797e-05
2.65625e-05
2.52681e-05
3.47745e-05
8.79265e-05
0.000147785
0.000188828
0.000212107
0.00022422
0.000230149
0.000232851
0.00023396
0.000234335
0.000234404
0.000234369
0.000234319
0.000234288
0.000234287
0.000234318
0.000234367
0.000234401
0.00023433
0.000233954
0.000232844
0.000230142
0.000224214
0.000212105
0.000188832
0.000147794
8.79358e-05
3.47767e-05
2.52668e-05
2.37137e-05
3.08841e-05
7.89886e-05
0.000137672
0.000180974
0.000206067
0.000219995
0.000227312
0.000230982
0.000232746
0.000233556
0.000233909
0.000234055
0.000234111
0.000234129
0.000234129
0.00023411
0.000234053
0.000233906
0.00023355
0.000232738
0.000230972
0.000227301
0.000219986
0.00020606
0.000180973
0.000137676
7.89944e-05
3.08856e-05
2.37124e-05
2.19001e-05
2.67603e-05
6.91342e-05
0.000125602
0.000169861
0.000197362
0.000213386
0.000222285
0.000227128
0.000229764
0.000231215
0.000232032
0.0002325
0.00023276
0.000232877
0.000232877
0.00023276
0.000232499
0.00023203
0.000231209
0.000229755
0.000227116
0.000222271
0.000213372
0.000197349
0.000169852
0.000125599
6.91354e-05
2.67609e-05
2.18989e-05
1.98145e-05
2.25634e-05
5.85911e-05
0.000111522
0.000155787
0.00018515
0.000202883
0.000213245
0.000219386
0.000223131
0.00022549
0.000227023
0.000228021
0.000228632
0.000228923
0.000228924
0.000228633
0.000228022
0.000227022
0.000225486
0.000223123
0.000219374
0.000213229
0.000202866
0.000185132
0.000155773
0.000111513
5.85875e-05
2.25629e-05
1.98138e-05
1.74817e-05
1.84185e-05
4.77108e-05
9.52718e-05
0.000137885
0.000167282
0.000185463
0.000196837
0.000204349
0.000209448
0.000213023
0.00021559
0.000217392
0.000218547
0.000219113
0.000219114
0.00021855
0.000217395
0.000215592
0.000213022
0.000209444
0.000204338
0.000196822
0.000185444
0.000167258
0.000137868
9.52582e-05
4.7704e-05
1.84174e-05
1.74812e-05
1.49208e-05
1.44798e-05
3.68824e-05
7.62305e-05
0.000113368
0.000139223
0.000156047
0.000167852
0.000176766
0.000183266
0.000188273
0.000192171
0.00019503
0.00019691
0.000197844
0.000197845
0.000196914
0.000195036
0.000192177
0.000188278
0.000183271
0.000176762
0.00016784
0.000156031
0.000139206
0.000113353
7.62163e-05
3.68743e-05
1.44786e-05
1.49205e-05
1.21559e-05
1.08442e-05
2.60611e-05
5.26605e-05
7.82909e-05
9.63935e-05
0.000109869
0.000120911
0.000130235
0.000138001
0.00014438
0.000149458
0.000153257
0.000155788
0.000157054
0.000157056
0.000155795
0.000153267
0.000149469
0.000144388
0.000138004
0.000130232
0.000120903
0.000109859
9.63822e-05
7.82796e-05
5.26498e-05
2.60535e-05
1.08432e-05
1.2156e-05
9.22755e-06
7.14181e-06
1.45177e-05
2.61472e-05
3.68819e-05
4.6242e-05
5.4799e-05
6.28217e-05
7.01305e-05
7.65899e-05
8.21265e-05
8.66758e-05
9.01594e-05
9.25164e-05
9.37057e-05
9.37078e-05
9.25222e-05
9.01685e-05
8.66866e-05
8.21364e-05
7.65959e-05
7.01332e-05
6.28215e-05
5.47965e-05
4.62378e-05
3.68774e-05
2.61424e-05
1.45147e-05
7.14198e-06
9.22777e-06
5.75245e-06
1.28173e-06
5.16044e-06
9.08071e-06
1.31668e-05
1.70468e-05
2.07108e-05
2.41179e-05
2.72042e-05
2.99491e-05
3.23335e-05
3.43198e-05
3.58557e-05
3.6901e-05
3.74304e-05
3.74309e-05
3.69025e-05
3.58579e-05
3.43225e-05
3.23359e-05
2.99505e-05
2.72051e-05
2.41185e-05
2.0711e-05
1.70465e-05
1.31665e-05
9.08044e-06
5.16063e-06
1.28173e-06
5.75284e-06
3.95192e-06
6.70637e-06
9.36351e-06
1.17399e-05
1.40486e-05
1.62031e-05
1.81588e-05
1.98103e-05
2.12306e-05
2.24436e-05
2.34447e-05
2.42369e-05
2.48279e-05
2.52207e-05
2.54167e-05
2.54165e-05
2.52201e-05
2.48269e-05
2.42355e-05
2.34432e-05
2.24422e-05
2.12293e-05
1.9809e-05
1.81576e-05
1.62021e-05
1.40478e-05
1.17395e-05
9.36342e-06
6.70645e-06
3.95207e-06
3.5587e-06
6.08443e-06
8.69237e-06
1.10707e-05
1.34504e-05
1.56992e-05
1.77703e-05
1.95423e-05
2.10769e-05
2.23999e-05
2.35218e-05
2.44324e-05
2.51189e-05
2.55779e-05
2.58077e-05
2.58079e-05
2.55783e-05
2.51197e-05
2.44335e-05
2.35231e-05
2.24011e-05
2.10781e-05
1.95436e-05
1.7772e-05
1.57007e-05
1.34513e-05
1.10711e-05
8.69218e-06
6.08396e-06
3.55828e-06
5.1175e-06
1.60832e-06
7.4507e-06
1.10223e-05
1.46057e-05
1.76192e-05
2.02082e-05
2.26104e-05
2.46989e-05
2.64811e-05
2.79517e-05
2.91171e-05
2.99897e-05
3.05723e-05
3.0864e-05
3.08637e-05
3.05714e-05
2.99884e-05
2.91154e-05
2.79503e-05
2.64805e-05
2.46989e-05
2.26105e-05
2.0208e-05
1.76172e-05
1.46029e-05
1.10193e-05
7.44716e-06
1.60746e-06
5.11656e-06
8.68334e-06
1.01882e-05
1.32312e-05
1.66995e-05
2.18562e-05
2.72968e-05
3.23201e-05
3.67087e-05
4.07102e-05
4.42823e-05
4.73173e-05
4.97717e-05
5.16311e-05
5.28674e-05
5.34853e-05
5.34841e-05
5.2864e-05
5.16252e-05
4.97605e-05
4.73054e-05
4.42793e-05
4.07117e-05
3.6713e-05
3.2325e-05
2.7302e-05
2.186e-05
1.67024e-05
1.32316e-05
1.01861e-05
8.68261e-06
1.15708e-05
1.34085e-05
1.79041e-05
2.56821e-05
3.59999e-05
4.66457e-05
5.60794e-05
6.42748e-05
7.15435e-05
7.80711e-05
8.36905e-05
8.82327e-05
9.16453e-05
9.39039e-05
9.50252e-05
9.50202e-05
9.38892e-05
9.16213e-05
8.82015e-05
8.36587e-05
7.8047e-05
7.15342e-05
6.42734e-05
5.60841e-05
4.66543e-05
3.60103e-05
2.56891e-05
1.7906e-05
1.34038e-05
1.15699e-05
1.44294e-05
1.58885e-05
2.27901e-05
3.59156e-05
5.44991e-05
7.39524e-05
9.00477e-05
0.000102551
0.000112721
0.000121476
0.000128671
0.000134256
0.000138337
0.00014092
0.000142176
0.000142172
0.000140908
0.000138315
0.00013423
0.000128647
0.000121457
0.000112717
0.00010256
9.00676e-05
7.3978e-05
5.45218e-05
3.59333e-05
2.2799e-05
1.58845e-05
1.4429e-05
1.71464e-05
1.81093e-05
2.86024e-05
4.70939e-05
7.35e-05
0.00010012
0.000122268
0.000138193
0.000149745
0.000158568
0.000165383
0.000170514
0.00017418
0.000176513
0.000177643
0.000177641
0.000176508
0.000174171
0.000170506
0.00016538
0.000158574
0.000149762
0.000138218
0.000122302
0.000100159
7.35367e-05
4.71153e-05
2.86137e-05
1.8106e-05
1.71463e-05
1.96592e-05
2.05468e-05
3.39531e-05
5.8296e-05
9.09801e-05
0.000122512
0.000146922
0.00016421
0.00017619
0.000184632
0.00019069
0.000195018
0.000198002
0.000199871
0.00020077
0.000200769
0.000199871
0.000198002
0.000195021
0.000190698
0.000184648
0.000176213
0.000164238
0.000146956
0.000122554
9.10186e-05
5.83174e-05
3.39629e-05
2.05475e-05
1.96594e-05
2.1963e-05
2.30288e-05
3.90359e-05
6.8855e-05
0.000106042
0.000139815
0.000164831
0.00018217
0.000193813
0.000201591
0.000206819
0.000210334
0.000212642
0.000214042
0.000214703
0.000214703
0.000214044
0.000212646
0.000210341
0.000206831
0.000201608
0.000193835
0.000182195
0.00016486
0.000139847
0.000106074
6.88756e-05
3.90431e-05
2.30293e-05
2.19632e-05
2.40618e-05
2.53418e-05
4.39117e-05
7.87777e-05
0.000119005
0.00015323
0.000177822
0.000194431
0.00020526
0.000212191
0.000216595
0.000219377
0.0002211
0.000222099
0.000222557
0.000222558
0.000222102
0.000221106
0.000219386
0.000216607
0.000212207
0.000205279
0.000194452
0.000177844
0.000153254
0.000119029
7.87948e-05
4.39157e-05
2.53414e-05
2.40621e-05
2.59008e-05
2.74228e-05
4.83408e-05
8.74676e-05
0.000130197
0.000163808
0.000187342
0.000202835
0.000212636
0.000218664
0.000222298
0.000224453
0.000225701
0.000226383
0.000226683
0.000226684
0.000226386
0.000225707
0.000224461
0.000222309
0.000218678
0.000212651
0.00020285
0.000187357
0.000163822
0.000130209
8.74799e-05
4.83413e-05
2.74213e-05
2.59011e-05
2.74589e-05
2.92373e-05
5.21991e-05
9.46517e-05
0.000138573
0.000171791
0.000194252
0.000208594
0.000217373
0.000222557
0.000225521
0.000227164
0.000228044
0.000228487
0.000228671
0.000228672
0.00022849
0.000228048
0.000227171
0.000225529
0.000222566
0.000217382
0.000208602
0.000194259
0.000171795
0.000138577
9.46603e-05
5.21962e-05
2.92346e-05
2.74593e-05
2.87215e-05
3.07488e-05
5.54228e-05
0.000100415
0.000144939
0.000177666
0.000199172
0.000212502
0.000220393
0.000224867
0.000227289
0.000228538
0.000229146
0.00022942
0.000229522
0.000229523
0.000229421
0.000229149
0.000228542
0.000227294
0.000224871
0.000220398
0.000212504
0.000199172
0.000177664
0.000144938
0.00010042
5.54174e-05
3.0745e-05
2.87221e-05
2.96775e-05
3.19219e-05
5.79401e-05
0.000104809
0.000149615
0.000181841
0.000202555
0.000215079
0.000222279
0.000226208
0.000228229
0.000229195
0.000229615
0.000229775
0.000229824
0.000229824
0.000229775
0.000229616
0.000229196
0.00022823
0.000226208
0.000222277
0.000215076
0.000202549
0.000181833
0.000149608
0.000104808
5.79319e-05
3.19172e-05
2.96784e-05
3.03189e-05
3.27253e-05
5.96699e-05
0.000107797
0.000152717
0.000184542
0.000204686
0.000216651
0.000223378
0.000226944
0.000228702
0.000229487
0.00022979
0.000229881
0.000229898
0.000229898
0.00022988
0.000229789
0.000229485
0.000228699
0.000226939
0.000223372
0.000216643
0.000204676
0.000184529
0.000152705
0.000107791
5.96596e-05
3.27201e-05
3.032e-05
3.06404e-05
3.31373e-05
6.0556e-05
0.000109309
0.000154269
0.000185874
0.000205721
0.000217399
0.000223887
0.000227271
0.000228899
0.000229596
0.000229844
0.000229902
0.000229904
0.000229904
0.0002299
0.00022984
0.000229592
0.000228892
0.000227263
0.000223877
0.000217387
0.000205707
0.000185858
0.000154253
0.000109297
6.05448e-05
3.31327e-05
3.06418e-05
3.06398e-05
3.31387e-05
6.05603e-05
0.00010932
0.000154278
0.000185881
0.000205726
0.000217403
0.000223891
0.000227274
0.000228901
0.000229599
0.000229846
0.000229905
0.000229907
0.000229906
0.000229902
0.000229842
0.000229593
0.000228893
0.000227264
0.000223879
0.000217389
0.000205709
0.000185862
0.000154257
0.000109302
6.05465e-05
3.31333e-05
3.06416e-05
3.0317e-05
3.27297e-05
5.96829e-05
0.000107831
0.000152744
0.000184561
0.0002047
0.000216662
0.000223388
0.000226952
0.00022871
0.000229495
0.000229798
0.000229889
0.000229905
0.000229905
0.000229886
0.000229793
0.000229488
0.000228701
0.000226942
0.000223375
0.000216647
0.000204682
0.000184539
0.000152719
0.000107807
5.9665e-05
3.27224e-05
3.03192e-05
2.96744e-05
3.19289e-05
5.79611e-05
0.000104864
0.000149658
0.000181869
0.000202575
0.000215095
0.000222291
0.00022622
0.000228241
0.000229207
0.000229627
0.000229788
0.000229836
0.000229835
0.000229785
0.000229623
0.000229201
0.000228233
0.000226211
0.00022228
0.000215081
0.000202558
0.000181847
0.00014963
0.000104833
5.79407e-05
3.19208e-05
2.96771e-05
2.87173e-05
3.07578e-05
5.54504e-05
0.000100492
0.000144994
0.000177699
0.000199192
0.000212517
0.000220406
0.000224879
0.000227302
0.000228553
0.000229162
0.000229437
0.000229539
0.000229538
0.000229434
0.000229158
0.000228548
0.000227297
0.000224872
0.000220399
0.000212507
0.00019918
0.000177679
0.000144966
0.000100457
5.54293e-05
3.07496e-05
2.87203e-05
2.74537e-05
2.92474e-05
5.22295e-05
9.47408e-05
0.000138632
0.000171821
0.000194268
0.000208604
0.000217381
0.000222567
0.000225534
0.00022718
0.000228063
0.000228509
0.000228693
0.000228692
0.000228507
0.000228061
0.000227178
0.000225531
0.000222565
0.000217379
0.000208601
0.000194262
0.000171808
0.000138606
9.47036e-05
5.22089e-05
2.92396e-05
2.7457e-05
2.58949e-05
2.74331e-05
4.83713e-05
8.75573e-05
0.000130252
0.000163831
0.000187348
0.000202835
0.000212638
0.00021867
0.00022231
0.000224471
0.000225724
0.000226409
0.00022671
0.000226709
0.000226407
0.000225722
0.00022447
0.000222311
0.000218673
0.000212642
0.000202841
0.000187352
0.000163827
0.000130234
8.75236e-05
4.83546e-05
2.74264e-05
2.58984e-05
2.40555e-05
2.53515e-05
4.39382e-05
7.88548e-05
0.00011906
0.000153238
0.000177811
0.000194419
0.000205253
0.000212192
0.000216605
0.000219397
0.000221127
0.00022213
0.00022259
0.000222589
0.000222128
0.000221125
0.000219396
0.000216608
0.000212199
0.000205264
0.000194433
0.000177827
0.000153248
0.00011905
7.88314e-05
4.39277e-05
2.53462e-05
2.40591e-05
2.19569e-05
2.30367e-05
3.90525e-05
6.88975e-05
0.000106049
0.000139784
0.000164792
0.000182139
0.000193795
0.000201588
0.000206831
0.000210359
0.000212676
0.00021408
0.000214743
0.000214741
0.000214076
0.000212671
0.000210356
0.000206833
0.000201598
0.000193813
0.000182164
0.000164825
0.000139816
0.000106067
6.88929e-05
3.90501e-05
2.30332e-05
2.19602e-05
1.96553e-05
2.05517e-05
3.39557e-05
5.82904e-05
9.09266e-05
0.000122425
0.000146846
0.000164157
0.000176162
0.000184627
0.000190707
0.000195053
0.000198047
0.00019992
0.000200819
0.000200817
0.000199913
0.000198037
0.000195044
0.000190705
0.000184636
0.000176184
0.000164194
0.000146899
0.00012249
9.09773e-05
5.83087e-05
3.39623e-05
2.05499e-05
1.96576e-05
1.71433e-05
1.81157e-05
2.85942e-05
4.70584e-05
7.34016e-05
9.99879e-05
0.000122148
0.000138117
0.000149707
0.000158568
0.000165415
0.00017057
0.000174243
0.000176579
0.000177709
0.000177704
0.000176565
0.000174222
0.000170545
0.000165397
0.000158566
0.000149727
0.00013816
0.000122219
0.00010007
7.34691e-05
4.70887e-05
2.86048e-05
1.8111e-05
1.71449e-05
1.44269e-05
1.5897e-05
2.27798e-05
3.58781e-05
5.44107e-05
7.38163e-05
8.99202e-05
0.000102473
0.000112691
0.000121496
0.000128733
0.000134346
0.000138426
0.000141011
0.000142267
0.000142259
0.000140987
0.000138388
0.00013429
0.000128681
0.000121461
0.000112687
0.0001025
8.99777e-05
7.38861e-05
5.44599e-05
3.5903e-05
2.27895e-05
1.58902e-05
1.44277e-05
1.15703e-05
1.34192e-05
1.79001e-05
2.56626e-05
3.59424e-05
4.65769e-05
5.60224e-05
6.42438e-05
7.15426e-05
7.81096e-05
8.37595e-05
8.83212e-05
9.17443e-05
9.40086e-05
9.51293e-05
9.51176e-05
9.39744e-05
9.16905e-05
8.82548e-05
8.36945e-05
7.8062e-05
7.15257e-05
6.42465e-05
5.60412e-05
4.66053e-05
3.59692e-05
2.56741e-05
1.79014e-05
1.34102e-05
1.15698e-05
8.68481e-06
1.01991e-05
1.32304e-05
1.66903e-05
2.18418e-05
2.72825e-05
3.23091e-05
3.67065e-05
4.07187e-05
4.43012e-05
4.73452e-05
4.9804e-05
5.16713e-05
5.29139e-05
5.35333e-05
5.35296e-05
5.29027e-05
5.16521e-05
4.97778e-05
4.73187e-05
4.42879e-05
4.07143e-05
3.67092e-05
3.23156e-05
2.72912e-05
2.18497e-05
1.66954e-05
1.32298e-05
1.01918e-05
8.68352e-06
5.1187e-06
1.61091e-06
7.45448e-06
1.10299e-05
1.46148e-05
1.76281e-05
2.02138e-05
2.26171e-05
2.47076e-05
2.64924e-05
2.79677e-05
2.91363e-05
3.00111e-05
3.0595e-05
3.0887e-05
3.08859e-05
3.05918e-05
3.00062e-05
2.91304e-05
2.79617e-05
2.64878e-05
2.4704e-05
2.26144e-05
2.02113e-05
1.76233e-05
1.46092e-05
1.10247e-05
7.4504e-06
1.60935e-06
5.11757e-06
3.55961e-06
6.0861e-06
8.6935e-06
1.10707e-05
1.34489e-05
1.56963e-05
1.77662e-05
1.95387e-05
2.1073e-05
2.23955e-05
2.3515e-05
2.44251e-05
2.51116e-05
2.55706e-05
2.58007e-05
2.58011e-05
2.55718e-05
2.51135e-05
2.44277e-05
2.35179e-05
2.23979e-05
2.10755e-05
1.95413e-05
1.77693e-05
1.56988e-05
1.34505e-05
1.10712e-05
8.693e-06
6.08506e-06
3.55894e-06
3.37514e-06
5.73809e-06
8.25202e-06
1.05674e-05
1.2891e-05
1.50865e-05
1.71033e-05
1.88415e-05
2.03654e-05
2.16842e-05
2.27847e-05
2.3666e-05
2.43298e-05
2.47738e-05
2.49962e-05
2.49959e-05
2.4773e-05
2.43286e-05
2.36645e-05
2.27829e-05
2.16825e-05
2.03638e-05
1.88402e-05
1.7102e-05
1.50859e-05
1.28912e-05
1.05683e-05
8.25335e-06
5.73948e-06
3.3761e-06
4.8946e-06
2.55552e-06
1.07565e-05
1.60363e-05
2.10932e-05
2.55671e-05
2.93741e-05
3.23357e-05
3.46089e-05
3.63268e-05
3.76241e-05
3.85968e-05
3.92973e-05
3.97534e-05
3.99787e-05
3.99786e-05
3.97534e-05
3.92974e-05
3.85972e-05
3.76249e-05
3.63277e-05
3.46101e-05
3.23397e-05
2.93815e-05
2.55772e-05
2.11035e-05
1.60449e-05
1.07629e-05
2.55882e-06
4.89648e-06
8.30622e-06
1.31793e-05
1.73246e-05
2.1102e-05
2.41111e-05
2.71957e-05
3.01702e-05
3.30214e-05
3.57614e-05
3.82609e-05
4.04308e-05
4.22289e-05
4.36137e-05
4.456e-05
4.5039e-05
4.50379e-05
4.45567e-05
4.36079e-05
4.22224e-05
4.04222e-05
3.82474e-05
3.5748e-05
3.3024e-05
3.01773e-05
2.72029e-05
2.41175e-05
2.11069e-05
1.73294e-05
1.31895e-05
8.30832e-06
1.10739e-05
1.82962e-05
2.33434e-05
2.49008e-05
2.87066e-05
3.4992e-05
4.15901e-05
4.77491e-05
5.32269e-05
5.78621e-05
6.17163e-05
6.48724e-05
6.72892e-05
6.89348e-05
6.97686e-05
6.97734e-05
6.8949e-05
6.7312e-05
6.49012e-05
6.1746e-05
5.78842e-05
5.32268e-05
4.77269e-05
4.1573e-05
3.49847e-05
2.8706e-05
2.49054e-05
2.33536e-05
1.83117e-05
1.10758e-05
1.37974e-05
2.22278e-05
2.64327e-05
2.95582e-05
3.87217e-05
5.07403e-05
6.19883e-05
7.17382e-05
7.98154e-05
8.66257e-05
9.22746e-05
9.6878e-05
0.000100381
0.000102906
0.000104203
0.000104212
0.000102931
0.000100428
9.69351e-05
9.23261e-05
8.66519e-05
7.9817e-05
7.17196e-05
6.19621e-05
5.07178e-05
3.87189e-05
2.95573e-05
2.64397e-05
2.22391e-05
1.37982e-05
1.64135e-05
2.56438e-05
2.86461e-05
3.58991e-05
5.08334e-05
6.86292e-05
8.5783e-05
0.000100897
0.000112997
0.000122449
0.000129824
0.000135485
0.000139565
0.000142236
0.000143567
0.000143571
0.000142249
0.000139589
0.000135517
0.000129845
0.000122447
0.000112969
0.000100847
8.57168e-05
6.85806e-05
5.08029e-05
3.58854e-05
2.86487e-05
2.5651e-05
1.64131e-05
1.88812e-05
2.82393e-05
3.10116e-05
4.35785e-05
6.31075e-05
8.62516e-05
0.000109573
0.000128517
0.000142444
0.000152693
0.00016029
0.000165867
0.000169789
0.00017229
0.000173511
0.000173512
0.000172294
0.000169795
0.000165872
0.000160286
0.000152675
0.000142412
0.000128469
0.000109505
8.61839e-05
6.30684e-05
4.35593e-05
3.10109e-05
2.82402e-05
1.88796e-05
2.11548e-05
3.03133e-05
3.41001e-05
5.10491e-05
7.47863e-05
0.000103184
0.000129568
0.000149743
0.000164338
0.000174718
0.000182084
0.000187265
0.000190788
0.00019298
0.000194032
0.000194032
0.000192979
0.000190786
0.000187259
0.000182072
0.000174698
0.00016431
0.000149706
0.000129525
0.000103144
7.47608e-05
5.10389e-05
3.40916e-05
3.03116e-05
2.11525e-05
2.31902e-05
3.19916e-05
3.74884e-05
5.74155e-05
8.50534e-05
0.000117669
0.000145056
0.000165431
0.0001799
0.000189957
0.000196866
0.000201549
0.000204624
0.000206485
0.000207362
0.000207361
0.000206482
0.000204619
0.000201541
0.000196854
0.000189941
0.000179881
0.000165409
0.000145035
0.000117656
8.50508e-05
5.74104e-05
3.74831e-05
3.19892e-05
2.31872e-05
2.49826e-05
3.33641e-05
4.08466e-05
6.34042e-05
9.50211e-05
0.000129599
0.000156978
0.000176904
0.000190814
0.000200285
0.000206618
0.000210771
0.000213405
0.000214953
0.000215667
0.000215666
0.00021495
0.000213401
0.000210764
0.000206609
0.000200275
0.000190802
0.000176894
0.000156972
0.000129603
9.50394e-05
6.34042e-05
4.08463e-05
3.33609e-05
2.49792e-05
2.65121e-05
3.44887e-05
4.39236e-05
6.86987e-05
0.000103682
0.000138906
0.000165962
0.000185207
0.000198391
0.000207183
0.000212911
0.000216552
0.000218784
0.000220055
0.000220628
0.000220627
0.000220053
0.000218781
0.000216548
0.000212907
0.000207179
0.000198387
0.000185207
0.000165968
0.000138924
0.000103713
6.87022e-05
4.39283e-05
3.44848e-05
2.65083e-05
2.77601e-05
3.53951e-05
4.64831e-05
7.30591e-05
0.000110588
0.000145988
0.000172556
0.000191096
0.000203563
0.000211705
0.000216878
0.000220067
0.000221957
0.000222997
0.000223455
0.000223455
0.000222997
0.000221956
0.000220066
0.000216878
0.000211707
0.000203567
0.000191105
0.000172571
0.000146014
0.000110624
7.30624e-05
4.64875e-05
3.53907e-05
2.7756e-05
2.87107e-05
3.60904e-05
4.84203e-05
7.6327e-05
0.00011568
0.00015108
0.000177176
0.000195107
0.000206969
0.000214571
0.000219291
0.00022212
0.000223744
0.000224609
0.00022498
0.00022498
0.00022461
0.000223746
0.000222123
0.000219296
0.00021458
0.000206981
0.000195123
0.000177199
0.000151111
0.000115717
7.63326e-05
4.84248e-05
3.60867e-05
2.87065e-05
2.93521e-05
3.65742e-05
4.97535e-05
7.84908e-05
0.000119012
0.000154366
0.000180108
0.000197599
0.000209031
0.000216251
0.000220653
0.000223234
0.000224677
0.000225424
0.000225738
0.000225739
0.000225427
0.000224682
0.000223241
0.000220663
0.000216264
0.000209048
0.000197621
0.000180136
0.0001544
0.00011905
7.84978e-05
4.97586e-05
3.65738e-05
2.93478e-05
2.96761e-05
3.68655e-05
5.04386e-05
7.95738e-05
0.000120653
0.000155972
0.000181528
0.000198791
0.000209999
0.000217023
0.000221263
0.000223718
0.00022507
0.000225758
0.000226043
0.000226044
0.000225762
0.000225076
0.000223728
0.000221276
0.00021704
0.00021002
0.000198816
0.000181559
0.000156009
0.000120692
7.95834e-05
5.0445e-05
3.6877e-05
2.96721e-05
2.96768e-05
3.68639e-05
5.04377e-05
7.95633e-05
0.000120638
0.000155961
0.000181519
0.000198784
0.000209993
0.000217018
0.000221258
0.000223714
0.000225065
0.000225754
0.00022604
0.000226041
0.000225759
0.000225073
0.000223725
0.000221273
0.000217037
0.000210017
0.000198811
0.000181552
0.000155999
0.000120679
7.95765e-05
5.04442e-05
3.68766e-05
2.96726e-05
2.93542e-05
3.65711e-05
4.97509e-05
7.84594e-05
0.000118967
0.000154332
0.000180083
0.000197579
0.000209014
0.000216236
0.000220639
0.000223221
0.000224665
0.000225413
0.000225727
0.000225729
0.000225418
0.000224673
0.000223233
0.000220655
0.000216255
0.000209037
0.000197607
0.000180117
0.000154373
0.000119012
7.84775e-05
4.97562e-05
3.6573e-05
2.93494e-05
2.87142e-05
3.6086e-05
4.84161e-05
7.62755e-05
0.000115608
0.000151027
0.000177138
0.000195077
0.000206943
0.000214547
0.000219268
0.000222098
0.000223723
0.000224589
0.000224962
0.000224964
0.000224594
0.000223731
0.00022211
0.000219282
0.000214565
0.000206964
0.000195102
0.00017717
0.000151068
0.000115658
7.63e-05
4.84213e-05
3.60857e-05
2.87089e-05
2.77647e-05
3.53891e-05
4.6478e-05
7.29854e-05
0.000110494
0.000145922
0.000172509
0.000191059
0.000203529
0.000211673
0.000216846
0.000220036
0.000221928
0.00022297
0.000223429
0.000223431
0.000222974
0.000221935
0.000220047
0.000216859
0.000211688
0.000203546
0.000191078
0.000172535
0.00014596
0.000110547
7.30174e-05
4.64844e-05
3.53892e-05
2.77591e-05
2.65175e-05
3.44816e-05
4.39267e-05
6.86145e-05
0.000103577
0.000138835
0.000165912
0.000185166
0.000198352
0.000207145
0.000212873
0.000216513
0.000218746
0.000220018
0.000220593
0.000220595
0.000220023
0.000218753
0.000216522
0.000212882
0.000207155
0.000198362
0.000185178
0.000165929
0.000138866
0.000103629
6.8654e-05
4.39377e-05
3.44831e-05
2.65119e-05
2.49885e-05
3.33561e-05
4.08507e-05
6.3317e-05
9.49153e-05
0.000129528
0.000156929
0.000176863
0.000190772
0.000200242
0.000206572
0.000210723
0.000213358
0.000214907
0.000215623
0.000215625
0.000214911
0.000213364
0.00021073
0.000206578
0.000200247
0.000190776
0.000176865
0.000156935
0.000129546
9.49581e-05
6.33552e-05
4.08569e-05
3.33588e-05
2.49829e-05
2.31961e-05
3.19835e-05
3.7492e-05
5.73371e-05
8.49441e-05
0.000117603
0.000145019
0.000165396
0.00017986
0.000189909
0.000196811
0.00020149
0.000204565
0.000206428
0.000207307
0.000207309