/*--------------------------------*- C++ -*----------------------------------*\
| =========                 |                                                 |
| \\      /  F ield         | OpenFOAM: The Open Source CFD Toolbox           |
|  \\    /   O peration     | Version:  2312                                  |
|   \\  /    A nd           | Website:  www.openfoam.com                      |
|    \\/     M anipulation  |                                                 |
\*---------------------------------------------------------------------------*/
FoamFile
{
    version     2.0;
    format      ascii;
    arch        "LSB;label=32;scalar=64";
    class       surfaceScalarField;
    location    "300";
    object      phi;
}
// * * * * * * * * * * * * * * * * * * * * * * * * * * * * * * * * * * * * * //

dimensions      [1 0 -1 0 0 0 0];

oriented        oriented;

internalField   nonuniform List<scalar> 
78300
(
-2.82123e-05
0.000255714
0.00753189
0.00288963
0.00116909
0.00975113
0.00299976
0.00453216
0.0149951
0.00338329
0.00513328
0.0196081
0.00366653
0.00579447
0.0241925
0.00381938
0.00636481
0.0285267
0.00383161
0.00686679
0.0325417
0.00370251
0.00727903
0.0362249
0.00343256
0.00760139
0.0395531
0.00304017
0.00784718
0.0424754
0.002549
0.00803258
0.0449534
0.00198157
0.00816956
0.0469618
0.00135854
0.00826588
0.0484832
0.000699042
0.00832714
0.0495047
2.12791e-05
0.00835705
0.0500177
-0.000657006
0.00835745
0.0500178
-0.00131808
0.00832834
0.0495051
-0.00194368
0.00826783
0.0484838
-0.00251463
0.00817222
0.0469627
-0.00301016
0.00803585
0.0449545
-0.00340771
0.00785104
0.0424767
-0.00368342
0.00760573
0.0395545
-0.00381856
0.00728368
0.0362263
-0.00381196
0.00687114
0.032543
-0.00366271
0.00636733
0.0285278
-0.00338104
0.00579529
0.0241932
-0.00299579
0.00513122
0.0196085
-0.00288285
0.00452938
0.014995
2.93742e-05
0.00117493
0.00975091
0.000257276
0.00753149
0.00318167
0.00439182
0.00970393
0.00547433
0.00390216
0.0178639
0.00656335
0.00705184
0.0248794
0.00688111
0.00790812
0.0306931
0.00697021
0.00850828
0.03595
0.00688288
0.00900114
0.0408131
0.00664012
0.00941712
0.0452798
0.00623633
0.00976487
0.049323
0.00566896
0.0100411
0.0529214
0.00495079
0.0102491
0.0560507
0.00410797
0.0103993
0.0586869
0.00316926
0.010504
0.0608129
0.00216133
0.0105737
0.0624172
0.00110833
0.0106162
0.0634913
3.28175e-05
0.0106367
0.0640298
-0.00104355
0.0106377
0.06403
-0.00209896
0.0106192
0.0634919
-0.00311089
0.0105786
0.0624182
-0.00405478
0.0105104
0.0608144
-0.00490389
0.0104071
0.0586887
-0.00562885
0.0102577
0.0560527
-0.00620304
0.0100501
0.0529236
-0.0066127
0.00977331
0.049325
-0.00685972
0.00942399
0.0452815
-0.00695
0.00900548
0.0408142
-0.00686203
0.00850989
0.0359504
-0.00654732
0.00790959
0.0306926
-0.00546281
0.00705462
0.0248783
-0.00317156
0.00391075
0.0178626
0.00440415
0.00970327
0.00679704
0.00396744
0.0198939
0.00947906
0.00588285
0.0272641
0.0103483
0.00843967
0.0350701
0.0101637
0.00920568
0.0413246
0.0096429
0.0096093
0.0466494
0.00901728
0.00991317
0.0513898
0.00832643
0.0101798
0.0556809
0.00756107
0.010421
0.0595453
0.00670601
0.010629
0.0629729
0.00575685
0.0107952
0.0659463
0.00472091
0.0109191
0.0684487
0.00361335
0.0110057
0.0704663
0.00245171
0.0110628
0.0719884
0.00125408
0.0110971
0.0730075
3.81075e-05
0.0111138
0.0735185
-0.00117872
0.0111154
0.0735188
-0.00237896
0.0111018
0.0730084
-0.00354468
0.0110703
0.0719899
-0.00465772
0.0110157
0.0704682
-0.0056999
0.0109309
0.0684509
-0.0066558
0.0108082
0.0659486
-0.00751735
0.0106422
0.0629752
-0.00828866
0.0104335
0.0595472
-0.00898468
0.0101907
0.055682
-0.0096149
0.00992196
0.05139
-0.0101411
0.00961728
0.0466484
-0.0103309
0.0092142
0.0413228
-0.00946839
0.00845099
0.0350683
-0.00679029
0.00589678
0.0272627
0.00398709
0.0198934
0.00694074
0.00449453
0.0279045
0.0100897
0.00673581
0.0368282
0.0110495
0.00893685
0.0445809
0.0109256
0.00956425
0.0507314
0.0103393
0.00987126
0.0559119
0.00957719
0.0100749
0.0604765
0.00873591
0.0102499
0.0645791
0.00783711
0.0104176
0.0682628
0.00687978
0.0105741
0.0715267
0.00586008
0.0107093
0.0743572
0.00477945
0.0108165
0.0767397
0.00364492
0.0108952
0.0786614
0.00246773
0.0109486
0.0801118
0.00126109
0.0109815
0.0810832
3.91382e-05
0.0109979
0.0815703
-0.00118363
0.011
0.0815706
-0.00239272
0.0109877
0.081084
-0.00357374
0.0109586
0.0801131
-0.00471325
0.0109084
0.0786631
-0.00579964
0.0108322
0.0767416
-0.00682541
0.0107266
0.074359
-0.0077888
0.010592
0.0715281
-0.00869339
0.0104352
0.0682635
-0.00954041
0.0102668
0.0645788
-0.0103085
0.0100911
0.0604751
-0.0109011
0.00988788
0.0559095
-0.011032
0.00958259
0.0507286
-0.0100794
0.00895752
0.0445787
-0.00693612
0.00675674
0.036827
0.00451947
0.0279038
0.00789701
0.00473439
0.0360818
0.0108261
0.00724539
0.0460434
0.0114891
0.00905888
0.0537194
0.0112444
0.00951896
0.0595479
0.0106081
0.00973717
0.0644857
0.00979436
0.00987476
0.0688661
0.00888976
0.00999273
0.0728067
0.00792706
0.0101114
0.0763413
0.0069164
0.0102294
0.0794704
0.00586
0.0103381
0.0821833
0.00475938
0.0104298
0.0844669
0.00361858
0.0105009
0.0863092
0.00244485
0.0105512
0.0877
0.00124768
0.0105834
0.0886316
3.81241e-05
0.0106
0.0890989
-0.00117221
0.0106026
0.0890991
-0.00237148
0.0105911
0.0886323
-0.00354863
0.0105636
0.087701
-0.00469378
0.0105172
0.0863104
-0.00579948
0.0104494
0.0844681
-0.00686121
0.0103599
0.0821842
-0.0078774
0.0102524
0.0794707
-0.00884566
0.0101351
0.0763408
-0.00975599
0.0100168
0.0728052
-0.010576
0.00989965
0.0688636
-0.0112188
0.00976349
0.0644826
-0.011471
0.00954772
0.0595448
-0.0108158
0.0090893
0.0537175
-0.00789424
0.00727459
0.0460427
0.00476235
0.0360815
0.00857353
0.00479502
0.0440545
0.0113385
0.00737434
0.0548738
0.0117784
0.00888281
0.0623507
0.0114115
0.00921908
0.0678688
0.0107206
0.00936419
0.0725682
0.00987325
0.00945002
0.0767695
0.0089372
0.00952605
0.0805613
0.00794335
0.00960825
0.0839642
0.00690569
0.00969567
0.086976
0.00583046
0.00978104
0.0895864
0.00472089
0.00985712
0.0917835
0.00358052
0.00991906
0.0935559
0.00241456
0.00996506
0.094894
0.00123012
0.00999555
0.0957904
3.573e-05
0.0100119
0.0962399
-0.00115926
0.0100149
0.0962401
-0.0023455
0.0100046
0.0957908
-0.00351427
0.00997957
0.0948946
-0.00465828
0.00993837
0.0935566
-0.00577208
0.00988039
0.091784
-0.00685194
0.00980729
0.0895865
-0.00789448
0.00972413
0.0869755
-0.00889351
0.00963836
0.0839629
-0.00983508
0.00955773
0.0805592
-0.0106885
0.00948366
0.0767668
-0.0113862
0.00940022
0.0725653
-0.0117603
0.00925765
0.0678663
-0.0113286
0.00892278
0.0623493
-0.00857102
0.00741108
0.0548737
0.00482547
0.0440545
0.00907447
0.00469109
0.0516996
0.0116558
0.00720468
0.0631654
0.0119427
0.00845614
0.0703997
0.011496
0.00870751
0.075651
0.0107673
0.00880047
0.0801425
0.00989806
0.00884891
0.0841791
0.00894488
0.00889358
0.0878328
0.0079353
0.00894781
0.091115
0.00688415
0.00901067
0.0940203
0.0057994
0.00907603
0.0965383
0.00468577
0.00913739
0.0986574
0.00354715
0.00918971
0.100367
0.00238804
0.00923023
0.101657
0.00121411
0.00925813
0.102522
3.22045e-05
0.00927365
0.102955
-0.00115016
0.00927707
0.102955
-0.00232546
0.00926824
0.102522
-0.00348673
0.00924656
0.101658
-0.00462821
0.00921158
0.100367
-0.00574518
0.00916395
0.0986574
-0.00683375
0.00910645
0.0965379
-0.00788909
0.0090442
0.0940194
-0.00890333
0.00898406
0.0911135
-0.00986175
0.00893251
0.0878308
-0.0107368
0.0088907
0.0841768
-0.011472
0.00884531
0.0801402
-0.0119261
0.00875503
0.0756492
-0.0116468
0.00850449
0.070399
-0.00907215
0.00724803
0.0631655
0.00472356
0.0516999
0.00943675
0.00443987
0.0588718
0.0118477
0.00678641
0.0708135
0.0120215
0.00781868
0.0778023
0.0115253
0.00800983
0.082823
0.010775
0.00806888
0.0871355
0.00989493
0.00809288
0.0910253
0.00893404
0.00811645
0.0945529
0.00791779
0.00815053
0.0977245
0.00686095
0.00819456
0.100533
0.00577227
0.00824366
0.102967
0.00465745
0.00829214
0.105016
0.00352087
0.00833527
0.106669
0.00236691
0.00836998
0.107917
0.00120058
0.00839472
0.108753
2.76653e-05
0.00840899
0.109172
-0.00114557
0.00841268
0.109172
-0.00231282
0.0084056
0.108753
-0.00346827
0.00838763
0.107917
-0.00460683
0.00835906
0.106669
-0.00572413
0.00832131
0.105016
-0.00681572
0.00827748
0.102967
-0.00787602
0.00823242
0.100532
-0.00889632
0.00819207
0.0977233
-0.00986189
0.00816157
0.0945513
-0.0107474
0.00814164
0.0910237
-0.0115037
0.00812111
0.0871342
-0.0120065
0.00806469
0.0828222
-0.0118395
0.00787381
0.0778022
-0.00943434
0.00683518
0.0708139
0.00447428
0.0588723
0.00970669
0.00405347
0.0654319
0.0119607
0.00616262
0.0777286
0.0120452
0.00700409
0.0844858
0.0115156
0.00715058
0.0893072
0.0107539
0.00718855
0.0934653
0.00987045
0.00719851
0.097226
0.00890875
0.00720969
0.100641
0.00789231
0.00723073
0.103713
0.00683536
0.00726149
0.106435
0.00574697
0.00729821
0.108795
0.00463335
0.00733622
0.110781
0.00349938
0.00737133
0.112384
0.00234959
0.00740052
0.113594
0.00118879
0.00742197
0.114405
2.22326e-05
0.0074348
0.114811
-0.00114447
0.00743859
0.114811
-0.00230575
0.00743323
0.114405
-0.00345633
0.00741886
0.113594
-0.00459146
0.00739623
0.112384
-0.00570662
0.00736704
0.110781
-0.00679702
0.00733435
0.108795
-0.00785655
0.00730245
0.106435
-0.00887623
0.0072762
0.103713
-0.00984192
0.00725951
0.10064
-0.0107301
0.00725249
0.0972254
-0.011497
0.00724623
0.093465
-0.0120322
0.00721085
0.0893075
-0.0119533
0.00706416
0.0844865
-0.00970417
0.00621551
0.0777293
0.00408978
0.0654325
0.00990599
0.00354873
0.0712643
0.0120215
0.00536838
0.083826
0.0120344
0.00604096
0.0903757
0.0114798
0.00615329
0.0950277
0.0107117
0.00617884
0.0990536
0.00982879
0.0061825
0.102702
0.00887068
0.00618779
0.106019
0.00785853
0.00620163
0.109004
0.00680556
0.00622404
0.111651
0.00572069
0.00625216
0.113946
0.00461039
0.00628226
0.115878
0.00347991
0.00631088
0.117437
0.00233408
0.00633527
0.118614
0.00117777
0.00635365
0.119403
1.6138e-05
0.00636497
0.119799
-0.00114551
0.00636873
0.119799
-0.00230186
0.00636483
0.119403
-0.00344783
0.00635358
0.118614
-0.00457862
0.00633591
0.117437
-0.00568951
0.00631355
0.115878
-0.00677543
0.00628925
0.113946
-0.00783
0.00626654
0.111651
-0.00884443
0.00624928
0.109005
-0.00980551
0.00624032
0.106019
-0.0106921
0.00623958
0.102703
-0.0114644
0.0062398
0.0990545
-0.0120235
0.00621676
0.0950291
-0.0120151
0.00610407
0.0903771
-0.00990353
0.00542411
0.0838271
0.0035867
0.0712651
0.0100508
0.00294337
0.0762734
0.0120481
0.00443524
0.0890302
0.0120033
0.00495565
0.0954017
0.0114288
0.00504088
0.0999135
0.0106565
0.00505958
0.103829
0.00977628
0.00506226
0.107383
0.00882383
0.00506653
0.110616
0.00781829
0.00507763
0.113528
0.00677166
0.00509562
0.11611
0.0056924
0.00511835
0.11835
0.00458695
0.00514296
0.120237
0.00346083
0.00516665
0.121759
0.00231915
0.00518715
0.122909
0.00116701
0.00520283
0.12368
9.65745e-06
0.0052127
0.124066
-0.00114757
0.00521627
0.124066
-0.00229935
0.00521345
0.12368
-0.00344054
0.00520464
0.122909
-0.00456616
0.00519075
0.12176
-0.00567128
0.00517339
0.120237
-0.00675056
0.00515481
0.118351
-0.00779773
0.00513786
0.116111
-0.00880443
0.00512541
0.113529
-0.00975871
0.00511958
0.110617
-0.0106414
0.00512011
0.107385
-0.0114167
0.00512145
0.103831
-0.0119945
0.00510535
0.0999159
-0.0120428
0.00501988
0.095404
-0.0100485
0.00449245
0.0890318
0.00298256
0.0762745
0.0101533
0.00225648
0.0803783
0.0120543
0.00339246
0.0932759
0.0119639
0.00377337
0.0995017
0.0113734
0.00383655
0.103902
0.0105976
0.00385219
0.107728
0.00972017
0.00385706
0.111205
0.00877376
0.00386346
0.11437
0.00777542
0.00387489
0.117223
0.00673593
0.00389134
0.119753
0.00566309
0.00391117
0.121949
0.00456323
0.00393224
0.123799
0.00344193
0.00395241
0.125292
0.00230456
0.00396987
0.126419
0.00115648
0.0039833
0.127175
3.15376e-06
0.00399182
0.127554
-0.00114992
0.00399502
0.127554
-0.00229728
0.00399286
0.127175
-0.00343358
0.00398574
0.12642
-0.00455362
0.00397448
0.125293
-0.00565225
0.00396041
0.1238
-0.00672409
0.00394533
0.12195
-0.00776302
0.00393139
0.119755
-0.00876136
0.00392067
0.117225
-0.0097084
0.00391471
0.114373
-0.010587
0.00391333
0.111208
-0.0113646
0.00391265
0.107731
-0.0119574
0.00389982
0.103905
-0.0120501
0.0038368
0.0995048
-0.0101514
0.00344971
0.0932781
0.00229623
0.0803797
0.0102226
0.00150831
0.0835138
0.0120497
0.00226858
0.0965088
0.0119252
0.00251911
0.102623
0.0113221
0.00256385
0.106939
0.0105432
0.00257883
0.110699
0.00966804
0.00258764
0.114118
0.00872676
0.00259786
0.117232
0.00773481
0.00261146
0.120039
0.00670191
0.00262817
0.12253
0.00563518
0.00264679
0.124693
0.0045407
0.00266574
0.126514
0.00342409
0.00268344
0.127985
0.00229087
0.00269857
0.129096
0.00114662
0.0027101
0.129841
-2.96933e-06
0.00271737
0.130214
-0.00115221
0.00272005
0.130215
-0.00229542
0.00271817
0.129841
-0.00342707
0.00271207
0.129097
-0.00454176
0.00270244
0.127986
-0.00563418
0.00269032
0.126516
-0.00669897
0.00267706
0.124695
-0.00773027
0.00266418
0.122533
-0.0087211
0.00265319
0.120042
-0.00966186
0.00264513
0.117235
-0.0105372
0.00264005
0.114122
-0.0113167
0.00263563
0.110703
-0.0119209
0.00262381
0.106944
-0.0120468
0.00257985
0.102628
-0.0102211
0.00232435
0.0965117
0.00154785
0.0835156
0.0102649
0.000719879
0.0856311
0.0120415
0.00109188
0.0986874
0.0118938
0.00121784
0.104727
0.0112818
0.00124645
0.108987
0.0105004
0.00126205
0.112701
0.00962638
0.00127559
0.116082
0.0086886
0.00129034
0.119161
0.00770134
0.0013069
0.121939
0.00667343
0.00132479
0.124403
0.00561152
0.0013431
0.126543
0.00452143
0.00136073
0.128346
0.00340873
0.00137662
0.129802
0.00227903
0.00138984
0.130902
0.00113807
0.00139971
0.131639
-8.32796e-06
0.00140576
0.132009
-0.00115428
0.0014078
0.132009
-0.00229397
0.00140589
0.13164
-0.0034217
0.00140032
0.130903
-0.00453192
0.00139163
0.129804
-0.00561928
0.00138057
0.128348
-0.00667845
0.00136807
0.126546
-0.00770386
0.00135513
0.124406
-0.00868903
0.00134274
0.121942
-0.00962528
0.00133165
0.119166
-0.0104983
0.00132208
0.116087
-0.0112794
0.00131314
0.112707
-0.0118916
0.00130108
0.108992
-0.0120399
0.00127404
0.104732
-0.0102639
0.00114463
0.098691
0.000758377
0.0856332
0.0102843
-8.74091e-05
0.0866974
0.0120343
-0.000109645
0.0997833
0.0118741
-0.000105455
0.105785
0.0112569
-9.20239e-05
0.110016
0.0104736
-7.54054e-05
0.113709
0.00959986
-5.70888e-05
0.11707
0.00866367
-3.78127e-05
0.120133
0.00767882
-1.82343e-05
0.122895
0.0066537
9.94636e-07
0.125346
0.00559466
1.92021e-05
0.127475
0.00450733
3.5738e-05
0.129269
0.00339725
4.99892e-05
0.130717
0.00227002
6.14433e-05
0.131812
0.00113145
6.97035e-05
0.132545
-1.25745e-05
7.45265e-05
0.132913
-0.0011561
7.58356e-05
0.132913
-0.00229324
7.3725e-05
0.132546
-0.00341821
6.8441e-05
0.131813
-0.00452543
6.03629e-05
0.130719
-0.00560953
4.9965e-05
0.129271
-0.00666525
3.77822e-05
0.127478
-0.00768719
2.43666e-05
0.12535
-0.00866922
1.0247e-05
0.122899
-0.00960308
-4.09309e-06
0.120138
-0.0104751
-1.82414e-05
0.117076
-0.0112573
-3.18319e-05
0.113715
-0.0118739
-4.45157e-05
0.110023
-0.0120339
-5.55613e-05
0.105791
-0.0102837
-6.14577e-05
0.0997878
-5.08993e-05
0.0866999
0.0102826
-0.000892378
0.0866967
0.0120306
-0.00130808
0.0997823
0.0118687
-0.0014258
0.105784
0.0112501
-0.00142794
0.110015
0.0104657
-0.0014108
0.113708
0.00959116
-0.00138824
0.117069
0.00865454
-0.00136501
0.120132
0.0076696
-0.00134295
0.122894
0.00664473
-0.00132286
0.125346
0.00558623
-0.00130516
0.127475
0.0044997
-0.00129004
0.129269
0.00339061
-0.00127767
0.130717
0.00226454
-0.00126817
0.131812
0.00112723
-0.00126165
0.132545
-1.54578e-05
-0.00125815
0.132913
-0.00115763
-0.00125762
0.132913
-0.00229342
-0.00125994
0.132546
-0.0034171
-0.00126491
0.131813
-0.00452313
-0.00127231
0.130719
-0.00560617
-0.00128193
0.129271
-0.006661
-0.00129361
0.127478
-0.00768229
-0.00130726
0.12535
-0.00866394
-0.00132279
0.122899
-0.00959772
-0.00134002
0.120138
-0.01047
-0.00135833
0.117076
-0.0112527
-0.00137616
0.113715
-0.0118703
-0.00138907
0.110023
-0.0120314
-0.00138378
0.105791
-0.0102826
-0.00126598
0.0997876
-0.000858925
0.0866998
0.01026
-0.0016739
0.0856291
0.0120305
-0.00247575
0.0986845
0.0118778
-0.00271842
0.104723
0.0112617
-0.00273789
0.108983
0.0104771
-0.00272158
0.112699
0.00960082
-0.00269592
0.11608
0.00866177
-0.0026698
0.11916
0.00767425
-0.00264633
0.121938
0.00664704
-0.00262645
0.124403
0.00558671
-0.00261021
0.126543
0.00449893
-0.00259735
0.128346
0.00338915
-0.00258753
0.129802
0.00226285
-0.00258049
0.130902
0.00112562
-0.00257602
0.13164
-1.68373e-05
-0.00257399
0.132009
-0.00115878
-0.00257424
0.13201
-0.0022945
-0.00257662
0.13164
-0.00341843
-0.00258098
0.130904
-0.00452515
-0.00258723
0.129804
-0.0056094
-0.00259544
0.128349
-0.006666
-0.00260584
0.126546
-0.00768949
-0.00261885
0.124407
-0.00867356
-0.00263488
0.121943
-0.00960958
-0.00265407
0.119166
-0.0104834
-0.00267567
0.116087
-0.0112661
-0.00269679
0.112707
-0.0118808
-0.00270876
0.108992
-0.0120324
-0.00268553
0.104731
-0.0102606
-0.00244109
0.0986906
-0.00164468
0.0856328
0.0102146
-0.00241094
0.0835107
0.0120319
-0.00358514
0.0965041
0.0118995
-0.00395893
0.102618
0.01129
-0.00399883
0.106934
0.0105061
-0.0039856
0.110694
0.00962722
-0.00395859
0.114115
0.00868387
-0.00393123
0.11723
0.00769146
-0.00390803
0.120038
0.00665958
-0.00389002
0.12253
0.00559528
-0.00387681
0.124692
0.00450443
-0.00386755
0.126514
0.00339247
-0.00386136
0.127985
0.00226471
-0.00385753
0.129097
0.00112651
-0.0038556
0.129841
-1.66964e-05
-0.00385524
0.130215
-0.00115942
-0.00385622
0.130215
-0.00229624
-0.00385835
0.129842
-0.00342178
-0.00386153
0.129098
-0.00453088
-0.00386579
0.127987
-0.00561839
-0.00387147
0.126517
-0.00667912
-0.00387925
0.124696
-0.00770743
-0.00389009
0.122534
-0.0086965
-0.00390502
0.120043
-0.00963689
-0.00392462
0.117236
-0.0105133
-0.00394806
0.114122
-0.0112953
-0.00397096
0.110703
-0.0119035
-0.00398003
0.106943
-0.0120347
-0.00393605
0.102626
-0.0102157
-0.00355905
0.096511
-0.00238698
0.0835149
0.0101427
-0.00308297
0.0803741
0.0120307
-0.0046088
0.0932697
0.0119299
-0.00512331
0.0994942
0.0113311
-0.00518808
0.103895
0.0105487
-0.00518118
0.107723
0.00966653
-0.00515538
0.111202
0.00871732
-0.00512923
0.114368
0.00771817
-0.00510875
0.117222
0.00667983
-0.005095
0.119753
0.00561
-0.00508699
0.121949
0.0045148
-0.00508316
0.123799
0.0033996
-0.005082
0.125292
0.00226951
-0.00508239
0.12642
0.00112957
-0.00508359
0.127175
-1.51369e-05
-0.00508513
0.127555
-0.00115944
-0.00508675
0.127555
-0.0022982
-0.00508822
0.127176
-0.00342641
-0.00508942
0.126421
-0.0045391
-0.00509055
0.125294
-0.00563137
-0.00509215
0.123801
-0.00669802
-0.00509536
0.121952
-0.00773313
-0.00510181
0.119756
-0.00872925
-0.00511325
0.117226
-0.00967581
-0.0051309
0.114374
-0.0105558
-0.00515389
0.111208
-0.0113366
-0.00517627
0.107731
-0.0119343
-0.00517954
0.103904
-0.012034
-0.0051108
0.0995034
-0.0101442
-0.00459201
0.0932772
-0.00306512
0.0803787
0.010038
-0.00367045
0.0762684
0.01202
-0.00551937
0.089023
0.0119629
-0.00618788
0.0953932
0.0113788
-0.00628337
0.0999061
0.0105988
-0.00628729
0.103823
0.00971284
-0.00626643
0.107379
0.00875681
-0.00624504
0.110614
0.00774996
-0.00623075
0.113527
0.00670432
-0.00622442
0.11611
0.00562829
-0.00622438
0.11835
0.00452821
-0.00622825
0.120237
0.00340936
-0.00623383
0.12176
0.00227651
-0.00623957
0.122909
0.00113435
-0.00624453
0.12368
-1.23562e-05
-0.00624822
0.124066
-0.00115877
-0.00625032
0.124066
-0.00230007
-0.00625064
0.12368
-0.00343149
-0.00624901
0.12291
-0.0045484
-0.00624562
0.121761
-0.00564611
-0.00624123
0.120239
-0.0067195
-0.00623743
0.118352
-0.00776244
-0.00623653
0.116113
-0.00876671
-0.00624124
0.113531
-0.00972052
-0.00625346
0.110618
-0.0106048
-0.00627252
0.107385
-0.0113837
-0.0062909
0.103831
-0.0119672
-0.00628423
0.0999148
-0.0120235
-0.00618537
0.0954024
-0.0100397
-0.00551205
0.0890307
-0.00365931
0.0762733
0.00989165
-0.00415521
0.0712586
0.0119903
-0.00628899
0.0838182
0.01199
-0.00712903
0.0903669
0.011425
-0.00726298
0.0950205
0.0106483
-0.00728368
0.0990488
0.00975872
-0.00727333
0.1027
0.00879613
-0.00726167
0.106018
0.00778188
-0.007258
0.109005
0.00672939
-0.0072631
0.111651
0.00564768
-0.0072744
0.113946
0.00454314
-0.00728856
0.115878
0.00342084
-0.00730273
0.117437
0.00228519
-0.00731496
0.118614
0.00114054
-0.00732427
0.119403
-8.62632e-06
-0.00733025
0.119798
-0.00115763
-0.00733272
0.119798
-0.00230184
-0.00733139
0.119403
-0.00343667
-0.00732605
0.118615
-0.00455776
-0.00731672
0.117438
-0.00566066
-0.00730427
0.115879
-0.00674043
-0.0072906
0.113948
-0.00779078
-0.00727881
0.111653
-0.00880297
-0.00727254
0.109007
-0.00976383
-0.00727473
0.106021
-0.0106521
-0.00728487
0.102704
-0.0114283
-0.00729377
0.0990548
-0.0119934
-0.00727151
0.0950282
-0.0119936
-0.00713531
0.0903756
-0.00989359
-0.00629068
0.0838259
-0.00415107
0.0712637
0.00969159
-0.00452063
0.065426
0.0119283
-0.00688789
0.0777209
0.0119994
-0.00792211
0.0844778
0.0114589
-0.00810542
0.0893013
0.0106879
-0.00815168
0.0934622
0.00979666
-0.00815929
0.0972253
0.00882928
-0.00816358
0.100642
0.00780963
-0.00817615
0.103715
0.00675236
-0.00819747
0.106437
0.00566678
-0.0082239
0.108796
0.00455915
-0.0082511
0.110782
0.00343412
-0.00827559
0.112384
0.00229575
-0.00829526
0.113594
0.00114815
-0.00830932
0.114404
-4.20918e-06
-0.00831765
0.11481
-0.00115661
-0.00832028
0.11481
-0.00230427
-0.00831696
0.114404
-0.0034426
-0.0083072
0.113594
-0.00456731
-0.00829072
0.112385
-0.00567422
-0.0082682
0.110783
-0.00675866
-0.00824168
0.108797
-0.00781445
-0.00821493
0.106437
-0.00883251
-0.00819263
0.103715
-0.00979852
-0.00817891
0.100643
-0.0106889
-0.00817367
0.0972273
-0.0114599
-0.00816552
0.093466
-0.0120011
-0.00811901
0.0893071
-0.0119308
-0.00793501
0.0844852
-0.00969351
-0.00689725
0.077728
-0.00452338
0.065431
0.00942187
-0.00475117
0.058866
0.0118162
-0.00728274
0.0708067
0.0119769
-0.00854024
0.0777961
0.0114694
-0.00878841
0.0828196
0.0107087
-0.00887256
0.0871351
0.00981958
-0.00890798
0.0910271
0.00885143
-0.00893629
0.0945557
0.00783058
-0.0089718
0.0977275
0.00677242
-0.00901467
0.100535
0.00568614
-0.00906013
0.102969
0.00457753
-0.00910292
0.105017
0.00345067
-0.0091391
0.106668
0.00230936
-0.00916674
0.107915
0.00115773
-0.00918555
0.108751
6.14673e-07
-0.00919611
0.10917
-0.00115678
-0.00919873
0.10917
-0.00230907
-0.00919325
0.108751
-0.00345129
-0.00917874
0.107916
-0.00457891
-0.00915439
0.106669
-0.00568793
-0.00912016
0.105017
-0.00677399
-0.00907807
0.102969
-0.00783138
-0.00903218
0.100535
-0.00885107
-0.00898824
0.0977263
-0.00981807
-0.00895153
0.0945545
-0.0107066
-0.00892245
0.0910265
-0.0114675
-0.00888707
0.087136
-0.0119762
-0.0088038
0.0828227
-0.0118173
-0.0085567
0.0778013
-0.00942348
-0.00729758
0.0708127
-0.00476018
0.0588707
0.00906078
-0.00483627
0.0516945
0.0116272
-0.00743227
0.0631602
0.0119016
-0.00895097
0.0703963
0.011443
-0.00928807
0.0756509
0.0107024
-0.00942733
0.0801454
0.00982218
-0.00950255
0.0841836
0.00885986
-0.00956442
0.0878376
0.00784415
-0.0096302
0.0911191
0.00679079
-0.00970025
0.0940231
0.00570822
-0.00976852
0.0965395
0.00460123
-0.00982893
0.098657
0.00347326
-0.00987741
0.100365
0.00232803
-0.00991282
0.101655
0.00117027
-0.00993597
0.102519
5.60005e-06
-0.00994829
0.102952
-0.00115953
-0.00995083
0.102952
-0.0023187
-0.00994327
0.10252
-0.00346587
-0.00992427
0.101656
-0.00459592
-0.00989197
0.100366
-0.00570461
-0.00984534
0.0986579
-0.00678815
-0.00978546
0.0965395
-0.00784158
-0.00971653
0.094022
-0.00885656
-0.00964508
0.0911168
-0.00981781
-0.00957768
0.0878346
-0.0106972
-0.00951472
0.0841805
-0.0114379
-0.00943953
0.0801432
-0.0118981
-0.00930184
0.0756508
-0.0116264
-0.00896731
0.0703988
-0.00906196
-0.00744943
0.0631645
-0.00485038
0.0516984
0.00856167
-0.00476017
0.0440509
0.0113142
-0.00728797
0.0548709
0.0117424
-0.0091152
0.0623506
0.0113624
-0.00957855
0.0678725
0.0106575
-0.00979245
0.0725744
0.00979665
-0.00992076
0.0767764
0.0088495
-0.0100262
0.0805675
0.00784828
-0.0101305
0.0839688
0.00680794
-0.0102337
0.0869784
0.00573516
-0.0103284
0.0895867
0.00463298
-0.0104074
0.0917819
0.0035044
-0.0104679
0.0935528
0.00235357
-0.01051
0.0948898
0.00118652
-0.0105365
0.0957857
1.0622e-05
-0.0105501
0.0962351
-0.00116606
-0.0105524
0.0962357
-0.00233523
-0.0105431
0.0957871
-0.00348913
-0.0105204
0.0948919
-0.00462125
-0.010481
0.0935549
-0.00572665
-0.0104223
0.0917836
-0.00680184
-0.0103436
0.0895874
-0.00784332
-0.0102481
0.0869776
-0.00884444
-0.010143
0.0839662
-0.00979058
-0.0100364
0.0805634
-0.0106502
-0.0099291
0.0767714
-0.0113546
-0.00980025
0.0725695
-0.0117359
-0.0095877
0.0678692
-0.0113111
-0.00912778
0.0623502
-0.00856208
-0.00730382
0.0548731
-0.00477739
0.0440536
0.00788798
-0.00450946
0.03608
0.0108076
-0.00676856
0.0460431
0.0114586
-0.00898433
0.0537226
0.0111985
-0.00961547
0.0595548
0.0105454
-0.00991821
0.0644943
0.00971575
-0.0101132
0.0688743
0.0087986
-0.0102772
0.0728131
0.00782808
-0.0104328
0.0763452
0.00681508
-0.0105774
0.0794717
0.00576206
-0.0107016
0.082182
0.00467001
-0.0107993
0.0844636
0.00354211
-0.0108702
0.0863043
0.00238462
-0.0109177
0.0876941
0.00120581
-0.0109466
0.0886253
1.54576e-05
-0.0109609
0.0890926
-0.00117587
-0.0109629
0.0890932
-0.0023575
-0.0109523
0.0886272
-0.00351928
-0.0109266
0.0876969
-0.00465211
-0.0108816
0.0863075
-0.00574911
-0.0108122
0.0844666
-0.00680622
-0.0107148
0.0821841
-0.0078218
-0.0105895
0.0794721
-0.00879323
-0.0104427
0.0763436
-0.00970967
-0.0102842
0.0728093
-0.0105377
-0.0101175
0.0688686
-0.0111895
-0.0099208
0.0644877
-0.0114498
-0.00961856
0.059549
-0.010802
-0.0089907
0.0537195
-0.00788683
-0.00677989
0.046043
-0.00452681
0.0360812
0.00693406
-0.00397561
0.0279044
0.0100758
-0.00591063
0.0368305
0.0110224
-0.00847937
0.0445862
0.01088
-0.00924661
0.0507397
0.0102742
-0.00964569
0.0559208
0.0094949
-0.00994169
0.0604839
0.00864087
-0.0101991
0.0645839
0.00773515
-0.0104311
0.0682647
0.00677694
-0.0106303
0.0715257
0.00576212
-0.010789
0.0743537
0.00469142
-0.0109065
0.0767344
0.00357089
-0.010988
0.0786547
0.00241059
-0.0110413
0.0801043
0.00122259
-0.0110731
0.0810754
2.00282e-05
-0.0110886
0.0815627
-0.00118376
-0.0110902
0.0815636
-0.00237518
-0.0110778
0.0810778
-0.00354071
-0.0110487
0.0801079
-0.00466766
-0.0109975
0.0786591
-0.00574502
-0.0109172
0.0767388
-0.00676576
-0.0108
0.0743576
-0.0077285
-0.0106404
0.0715281
-0.00863656
-0.0104391
0.0682651
-0.00949088
-0.0102039
0.0645819
-0.0102687
-0.00994296
0.0604794
-0.0108726
-0.00964396
0.0559145
-0.0110141
-0.00924412
0.0507332
-0.0100694
-0.00847926
0.0445816
-0.00693401
-0.00591344
0.0368284
-0.00399268
0.0279042
0.00679312
-0.00439766
0.0198955
0.00946676
-0.00392532
0.0272678
0.0103194
-0.00708036
0.0350756
0.0101142
-0.00793512
0.0413313
0.00957328
-0.00853053
0.0466554
0.00893145
-0.00901738
0.0513938
0.00823017
-0.00942747
0.0556823
0.00746016
-0.00976925
0.0595442
0.00660657
-0.0100406
0.0629695
0.00566415
-0.0102444
0.065941
0.00463929
-0.0103912
0.0684422
0.00354607
-0.0104933
0.0704589
0.00240112
-0.0105611
0.0719806
0.00122153
-0.0106024
0.0729996
2.39457e-05
-0.0106223
0.0735109
-0.00117491
-0.0106234
0.0735117
-0.00235836
-0.0106056
0.0730021
-0.0035093
-0.0105663
0.0719845
-0.00460999
-0.0105001
0.0704638
-0.00564302
-0.0103991
0.0684475
-0.00659338
-0.0102528
0.0659462
-0.00745356
-0.0100485
0.0629739
-0.00822795
-0.00977581
0.0595471
-0.00893115
-0.00943125
0.0556832
-0.0095724
-0.0090178
0.0513923
-0.0101114
-0.00852716
0.0466518
-0.0103146
-0.00792978
0.0413265
-0.00946298
-0.00707477
0.0350711
-0.00678638
-0.00392802
0.0272648
-0.00440691
0.0198945
0.00318036
-0.000261692
0.00970538
0.00546656
-0.00118942
0.0178676
0.00653395
-0.00454275
0.0248831
0.00683121
-0.00514286
0.0306962
0.00690351
-0.00580158
0.0359517
0.00680473
-0.00636955
0.0408131
0.00655538
-0.00686895
0.0452782
0.0061505
-0.0072793
0.0493199
0.00558665
-0.00760008
0.0529171
0.00487605
-0.00784477
0.0560454
0.00404374
-0.00802917
0.058681
0.00311782
-0.00816541
0.0608067
0.00212411
-0.0082612
0.0624109
0.00108612
-0.00832216
0.0634851
2.57549e-05
-0.00835197
0.064024
-0.00103591
-0.00835246
0.0640246
-0.00207763
-0.00832363
0.0634871
-0.00307722
-0.00826358
0.0624139
-0.00401079
-0.00816853
0.0608107
-0.00485175
-0.00803295
0.0586856
-0.0055713
-0.00784899
0.0560503
-0.00614332
-0.0076045
0.0529217
-0.00655466
-0.00728336
0.0493239
-0.00680745
-0.00687215
0.045281
-0.00690632
-0.00637128
0.0408144
-0.00683168
-0.00580023
0.0359514
-0.00652914
-0.00514093
0.0306943
-0.00545183
-0.00454427
0.0248802
-0.00317729
-0.00117747
0.0178646
-0.000266747
0.00970425
-3.55215e-05
0.00753322
0.00286086
0.00975224
0.00295957
0.0149959
0.00333325
0.0196084
0.00360993
0.0241919
0.00375948
0.0285252
0.00377179
0.0325394
0.0036455
0.0362218
0.0033807
0.0395493
0.00299505
0.0424711
0.00251183
0.0449489
0.00195312
0.0469573
0.0013393
0.0484787
0.00068919
0.0495003
2.07374e-05
0.0500134
-0.00064856
0.0500138
-0.00130117
0.0495013
-0.00191906
0.0484804
-0.00248315
0.0469595
-0.00297287
0.0449516
-0.00336578
0.0424741
-0.00363813
0.0395524
-0.00377139
0.0362247
-0.00376479
0.032542
-0.00361892
0.0285272
-0.00334209
0.0241931
-0.0029669
0.0196088
-0.00286942
0.0149956
3.96308e-05
0.00975154
0.00753227
0.000734343
0.000433804
0.00636374
0.0010395
0.000912921
0.00853305
0.000810294
0.00185134
0.0133729
0.000733177
0.00215415
0.0175311
0.000706447
0.00260662
0.0216126
0.000736224
0.00305059
0.0254463
0.000782962
0.00349803
0.0289969
0.000817188
0.00393044
0.0322602
0.000817417
0.00433477
0.0352181
0.000772591
0.00469905
0.0378212
0.000680011
0.00501481
0.0400312
0.000543061
0.00527558
0.0418232
0.000369348
0.00547589
0.043181
0.000169659
0.00561146
0.0440929
-4.30069e-05
0.00567947
0.0445509
-0.00025462
0.00567868
0.0445507
-0.000451184
0.00560909
0.0440925
-0.000619787
0.00547198
0.0431804
-0.000749675
0.00527007
0.0418225
-0.000833361
0.00500773
0.0400305
-0.000867717
0.00469052
0.0378206
-0.000855774
0.00432499
0.0352176
-0.000809808
0.00392036
0.0322599
-0.000752418
0.00348855
0.028997
-0.000715048
0.00304361
0.0254468
-0.000740344
0.00260523
0.0216133
-0.000818829
0.00215501
0.017532
-0.0010502
0.0018526
0.0133738
-0.000743006
0.000909795
0.00853391