/*--------------------------------*- C++ -*----------------------------------*\
| =========                 |                                                 |
| \\      /  F ield         | OpenFOAM: The Open Source CFD Toolbox           |
|  \\    /   O peration     | Version:  2312                                  |
|   \\  /    A nd           | Website:  www.openfoam.com                      |
|    \\/     M anipulation  |                                                 |
\*---------------------------------------------------------------------------*/
FoamFile
{
    version     2.0;
    format      ascii;
    arch        "LSB;label=32;scalar=64";
    class       volScalarField;
    location    "300";
    object      T;
}
// * * * * * * * * * * * * * * * * * * * * * * * * * * * * * * * * * * * * * //

dimensions      [0 0 0 1 0 0 0];

internalField   nonuniform List<scalar> 
27000
(
426.692
356.069
347.411
343.203
342.463
342.524
342.725
342.954
343.185
343.387
343.554
343.688
343.788
343.854
343.887
343.886
343.853
343.787
343.687
343.552
343.384
343.182
342.951
342.722
342.522
342.461
343.202
347.41
356.068
426.701
335.778
354.667
348.648
346.991
346.647
346.789
346.989
347.157
347.292
347.4
347.483
347.547
347.593
347.622
347.637
347.636
347.621
347.591
347.544
347.48
347.396
347.288
347.153
346.986
346.787
346.646
346.991
348.65
354.672
335.784
342.3
345.636
348.261
348.058
347.896
347.892
347.949
348.006
348.049
348.082
348.107
348.126
348.139
348.147
348.151
348.151
348.146
348.137
348.123
348.104
348.079
348.046
348.003
347.947
347.891
347.896
348.06
348.264
345.638
342.3
342.239
346.109
347.743
348.08
348.1
348.101
348.122
348.148
348.17
348.187
348.198
348.206
348.211
348.215
348.216
348.216
348.213
348.21
348.204
348.195
348.184
348.168
348.146
348.121
348.101
348.102
348.082
347.746
346.111
342.24
342.657
346.621
347.841
348.087
348.143
348.156
348.166
348.179
348.191
348.201
348.207
348.211
348.214
348.215
348.216
348.215
348.214
348.212
348.209
348.205
348.199
348.19
348.178
348.166
348.157
348.145
348.09
347.843
346.622
342.658
343.079
346.973
347.948
348.127
348.168
348.178
348.182
348.187
348.193
348.197
348.201
348.203
348.203
348.204
348.204
348.204
348.203
348.202
348.201
348.199
348.196
348.192
348.187
348.183
348.179
348.17
348.129
347.95
346.975
343.079
343.477
347.221
348.02
348.159
348.187
348.191
348.19
348.189
348.19
348.191
348.192
348.192
348.192
348.192
348.192
348.191
348.191
348.191
348.191
348.191
348.19
348.19
348.189
348.19
348.192
348.188
348.16
348.021
347.222
343.477
343.823
347.405
348.07
348.18
348.199
348.198
348.194
348.19
348.187
348.185
348.184
348.184
348.183
348.182
348.182
348.182
348.182
348.182
348.183
348.184
348.185
348.187
348.19
348.194
348.199
348.2
348.182
348.072
347.406
343.824
344.119
347.545
348.109
348.196
348.207
348.202
348.195
348.189
348.184
348.181
348.179
348.177
348.176
348.176
348.175
348.175
348.175
348.176
348.177
348.178
348.181
348.184
348.189
348.196
348.203
348.208
348.197
348.11
347.546
344.12
344.365
347.652
348.139
348.207
348.212
348.205
348.195
348.188
348.182
348.178
348.175
348.173
348.172
348.171
348.171
348.171
348.171
348.172
348.173
348.175
348.178
348.182
348.188
348.196
348.205
348.213
348.208
348.14
347.653
344.365
344.559
347.732
348.162
348.217
348.216
348.206
348.195
348.187
348.18
348.176
348.173
348.171
348.169
348.168
348.168
348.168
348.168
348.169
348.17
348.172
348.175
348.18
348.186
348.195
348.206
348.216
348.217
348.163
347.733
344.56
344.707
347.791
348.18
348.223
348.219
348.207
348.195
348.186
348.179
348.174
348.171
348.169
348.168
348.167
348.167
348.166
348.167
348.167
348.169
348.171
348.174
348.178
348.185
348.195
348.206
348.219
348.223
348.18
347.792
344.708
344.814
347.832
348.192
348.228
348.221
348.208
348.195
348.185
348.178
348.174
348.171
348.168
348.167
348.166
348.166
348.166
348.166
348.167
348.168
348.17
348.173
348.178
348.185
348.194
348.207
348.22
348.228
348.192
347.833
344.814
344.883
347.859
348.2
348.232
348.223
348.208
348.195
348.185
348.178
348.174
348.17
348.168
348.167
348.166
348.166
348.166
348.166
348.167
348.168
348.17
348.173
348.177
348.184
348.194
348.207
348.222
348.231
348.2
347.859
344.883
344.917
347.872
348.205
348.235
348.225
348.21
348.196
348.186
348.179
348.174
348.171
348.169
348.168
348.167
348.166
348.166
348.166
348.167
348.168
348.17
348.173
348.177
348.185
348.195
348.208
348.223
348.233
348.204
347.872
344.917
344.917
347.873
348.206
348.236
348.226
348.211
348.198
348.187
348.18
348.175
348.172
348.17
348.168
348.167
348.167
348.167
348.167
348.167
348.169
348.17
348.173
348.178
348.185
348.195
348.209
348.224
348.234
348.205
347.872
344.917
344.884
347.862
348.204
348.237
348.227
348.212
348.199
348.189
348.181
348.176
348.173
348.171
348.169
348.168
348.168
348.168
348.168
348.168
348.17
348.171
348.174
348.179
348.186
348.197
348.21
348.225
348.234
348.202
347.861
344.884
344.817
347.838
348.199
348.236
348.228
348.214
348.201
348.19
348.183
348.178
348.174
348.172
348.171
348.17
348.169
348.169
348.169
348.17
348.171
348.173
348.176
348.181
348.188
348.198
348.211
348.225
348.233
348.196
347.837
344.816
344.711
347.799
348.189
348.233
348.228
348.215
348.202
348.192
348.185
348.179
348.176
348.174
348.172
348.172
348.171
348.171
348.171
348.172
348.173
348.175
348.178
348.183
348.19
348.2
348.212
348.225
348.23
348.186
347.797
344.711
344.565
347.742
348.174
348.228
348.227
348.215
348.203
348.193
348.186
348.181
348.178
348.176
348.175
348.174
348.174
348.174
348.174
348.174
348.175
348.177
348.18
348.185
348.192
348.201
348.213
348.224
348.225
348.171
347.74
344.563
344.371
347.663
348.152
348.22
348.223
348.214
348.203
348.194
348.188
348.184
348.181
348.179
348.178
348.178
348.177
348.177
348.177
348.178
348.178
348.18
348.183
348.187
348.193
348.202
348.212
348.221
348.217
348.149
347.661
344.369
344.126
347.558
348.123
348.208
348.218
348.211
348.202
348.195
348.189
348.186
348.185
348.184
348.183
348.183
348.183
348.183
348.183
348.183
348.183
348.184
348.186
348.189
348.194
348.201
348.21
348.216
348.206
348.12
347.555
344.125
343.832
347.419
348.084
348.192
348.208
348.205
348.198
348.194
348.191
348.19
348.19
348.19
348.191
348.191
348.191
348.19
348.19
348.19
348.19
348.189
348.19
348.191
348.194
348.199
348.205
348.208
348.191
348.082
347.416
343.83
343.486
347.234
348.032
348.168
348.193
348.194
348.192
348.191
348.192
348.195
348.197
348.199
348.2
348.201
348.201
348.201
348.2
348.2
348.198
348.197
348.195
348.193
348.192
348.194
348.196
348.194
348.168
348.031
347.233
343.484
343.088
346.985
347.957
348.132
348.17
348.177
348.18
348.186
348.193
348.2
348.206
348.21
348.212
348.214
348.214
348.214
348.213
348.211
348.209
348.205
348.2
348.194
348.188
348.184
348.181
348.174
348.135
347.959
346.985
343.087
342.666
346.63
347.846
348.087
348.139
348.15
348.161
348.176
348.191
348.203
348.213
348.219
348.223
348.226
348.227
348.226
348.225
348.222
348.218
348.212
348.203
348.192
348.178
348.165
348.155
348.145
348.093
347.85
346.632
342.666
342.248
346.116
347.742
348.072
348.089
348.09
348.113
348.143
348.17
348.19
348.204
348.215
348.222
348.226
348.228
348.228
348.225
348.22
348.213
348.202
348.189
348.17
348.145
348.117
348.096
348.097
348.081
347.749
346.12
342.249
342.309
345.638
348.249
348.039
347.877
347.877
347.939
348.001
348.05
348.087
348.115
348.135
348.15
348.159
348.163
348.163
348.158
348.148
348.132
348.112
348.085
348.049
348.002
347.942
347.883
347.886
348.05
348.26
345.645
342.311
335.796
354.649
348.619
346.963
346.626
346.775
346.982
347.156
347.295
347.406
347.491
347.556
347.602
347.632
347.647
347.646
347.631
347.6
347.553
347.488
347.402
347.292
347.154
346.983
346.779
346.633
346.974
348.632
354.663
335.799
426.635
356.028
347.381
343.184
342.452
342.519
342.723
342.955
343.188
343.391
343.559
343.692
343.793
343.859
343.891
343.891
343.858
343.791
343.691
343.556
343.388
343.185
342.953
342.722
342.519
342.455
343.189
347.391
356.043
426.668
447.487
363.265
347.534
339.078
336.539
335.984
335.984
336.152
336.382
336.611
336.809
336.967
337.084
337.162
337.202
337.202
337.164
337.086
336.97
336.813
336.616
336.388
336.159
335.991
335.99
336.545
339.084
347.54
363.271
447.465
332.361
361.234
352.217
346.898
344.078
343.256
343.288
343.564
343.866
344.135
344.352
344.518
344.638
344.715
344.754
344.754
344.717
344.641
344.523
344.358
344.142
343.874
343.572
343.296
343.262
344.082
346.9
352.215
361.22
332.334
337.041
343.701
349.417
348.825
347.555
346.862
346.677
346.721
346.83
346.939
347.03
347.1
347.15
347.183
347.199
347.2
347.185
347.154
347.105
347.036
346.946
346.837
346.728
346.682
346.864
347.554
348.82
349.405
343.684
337.029
336.044
341.892
346.402
347.983
348.064
347.855
347.726
347.699
347.723
347.76
347.796
347.824
347.846
347.86
347.867
347.868
347.862
347.849
347.829
347.801
347.765
347.727
347.702
347.726
347.852
348.057
347.972
346.388
341.879
336.036
336.432
342.334
346.041
347.518
347.973
348.045
348.026
348.012
348.016
348.029
348.045
348.058
348.069
348.076
348.08
348.08
348.078
348.071
348.061
348.048
348.032
348.017
348.012
348.024
348.04
347.964
347.507
346.029
342.325
336.426
336.8
343.141
346.36
347.51
347.929
348.071
348.111
348.121
348.127
348.134
348.143
348.15
348.156
348.16
348.163
348.163
348.162
348.158
348.152
348.144
348.135
348.127
348.119
348.107
348.065
347.92
347.5
346.351
343.135
336.796
337.199
343.795
346.686
347.617
347.952
348.087
348.141
348.163
348.174
348.181
348.187
348.191
348.195
348.198
348.199
348.2
348.199
348.196
348.193
348.187
348.181
348.173
348.161
348.137
348.081
347.945
347.609
346.68
343.79
337.196
337.608
344.295
346.927
347.717
347.993
348.107
348.159
348.184
348.196
348.203
348.208
348.211
348.214
348.215
348.216
348.217
348.216
348.214
348.212
348.208
348.203
348.195
348.182
348.156
348.103
347.988
347.713
346.923
344.292
337.607
337.979
344.681
347.101
347.793
348.029
348.127
348.173
348.196
348.208
348.214
348.218
348.221
348.223
348.224
348.224
348.225
348.224
348.223
348.221
348.218
348.214
348.207
348.195
348.171
348.124
348.026
347.791
347.099
344.679
337.978
338.297
344.979
347.229
347.85
348.057
348.144
348.184
348.205
348.215
348.22
348.224
348.226
348.227
348.228
348.228
348.228
348.228
348.227
348.226
348.224
348.22
348.215
348.204
348.183
348.143
348.056
347.849
347.228
344.978
338.297
338.563
345.206
347.323
347.891
348.079
348.156
348.192
348.21
348.219
348.224
348.226
348.228
348.229
348.23
348.23
348.23
348.23
348.23
348.229
348.227
348.224
348.22
348.211
348.193
348.157
348.08
347.892
347.324
345.206
338.563
338.776
345.377
347.392
347.922
348.095
348.166
348.198
348.214
348.222
348.225
348.228
348.229
348.23
348.231
348.231
348.231
348.231
348.231
348.23
348.229
348.227
348.223
348.215
348.2
348.168
348.098
347.924
347.394
345.377
338.777
338.936
345.498
347.439
347.943
348.106
348.172
348.202
348.216
348.223
348.226
348.228
348.229
348.23
348.231
348.232
348.232
348.232
348.231
348.231
348.23
348.228
348.225
348.219
348.205
348.176
348.11
347.946
347.442
345.5
338.936
339.041
345.576
347.469
347.955
348.112
348.175
348.203
348.217
348.223
348.226
348.228
348.229
348.23
348.231
348.232
348.232
348.232
348.232
348.231
348.23
348.229
348.226
348.22
348.208
348.18
348.117
347.96
347.473
345.579
339.042
339.093
345.613
347.482
347.96
348.114
348.176
348.203
348.216
348.222
348.226
348.228
348.229
348.23
348.231
348.231
348.232
348.232
348.232
348.231
348.23
348.229
348.227
348.221
348.209
348.182
348.121
347.966
347.488
345.617
339.095
339.092
345.611
347.48
347.958
348.112
348.174
348.202
348.215
348.221
348.225
348.227
348.228
348.229
348.23
348.231
348.231
348.231
348.231
348.231
348.23
348.229
348.226
348.22
348.208
348.181
348.12
347.965
347.487
345.616
339.094
339.038
345.57
347.462
347.948
348.106
348.17
348.199
348.212
348.22
348.223
348.226
348.227
348.228
348.229
348.23
348.23
348.23
348.23
348.23
348.229
348.228
348.225
348.219
348.206
348.177
348.114
347.957
347.47
345.576
339.041
338.93
345.488
347.427
347.931
348.096
348.163
348.194
348.21
348.218
348.222
348.224
348.226
348.227
348.228
348.228
348.229
348.229
348.229
348.228
348.228
348.226
348.223
348.216
348.201
348.171
348.105
347.941
347.437
345.495
338.934
338.768
345.363
347.375
347.906
348.082
348.154
348.189
348.206
348.215
348.22
348.223
348.224
348.225
348.226
348.226
348.227
348.227
348.227
348.227
348.226
348.224
348.22
348.212
348.196
348.163
348.091
347.917
347.386
345.371
338.773
338.553
345.189
347.303
347.873
348.063
348.144
348.182
348.202
348.212
348.218
348.221
348.222
348.223
348.224
348.224
348.224
348.225
348.225
348.224
348.223
348.221
348.216
348.207
348.188
348.151
348.073
347.883
347.314
345.198
338.558
338.285
344.959
347.206
347.83
348.041
348.131
348.175
348.197
348.209
348.215
348.218
348.219
348.22
348.221
348.221
348.221
348.221
348.221
348.221
348.22
348.217
348.211
348.2
348.179
348.137
348.049
347.839
347.217
344.968
338.29
337.964
344.659
347.077
347.773
348.014
348.116
348.166
348.191
348.204
348.21
348.213
348.214
348.215
348.215
348.216
348.216
348.216
348.216
348.215
348.214
348.211
348.204
348.192
348.168
348.119
348.019
347.781
347.087
344.668
337.971
337.591
344.271
346.904
347.7
347.981
348.101
348.156
348.182
348.194
348.2
348.203
348.204
348.205
348.206
348.206
348.206
348.206
348.206
348.205
348.203
348.2
348.193
348.18
348.154
348.099
347.982
347.704
346.911
344.28
337.598
337.18
343.772
346.667
347.604
347.947
348.087
348.144
348.166
348.175
348.179
348.182
348.184
348.185
348.186
348.187
348.188
348.187
348.187
348.185
348.182
348.178
348.172
348.162
348.138
348.081
347.942
347.603
346.669
343.778
337.186
336.782
343.121
346.346
347.505
347.932
348.08
348.121
348.129
348.131
348.134
348.138
348.141
348.145
348.147
348.148
348.149
348.148
348.146
348.143
348.138
348.133
348.127
348.122
348.111
348.069
347.921
347.496
346.342
343.123
336.786
336.416
342.318
346.034
347.525
347.989
348.065
348.045
348.025
348.023
348.029
348.039
348.048
348.055
348.06
348.063
348.064
348.062
348.058
348.05
348.041
348.029
348.019
348.017
348.032
348.049
347.971
347.508
346.022
342.314
336.417
336.029
341.882
346.408
348.007
348.098
347.889
347.753
347.716
347.73
347.759
347.788
347.811
347.829
347.841
347.848
347.849
347.844
347.833
347.816
347.792
347.761
347.728
347.709
347.739
347.869
348.073
347.981
346.386
341.869
336.025
337.026
343.698
349.447
348.876
347.608
346.905
346.706
346.737
346.835
346.935
347.019
347.085
347.133
347.164
347.18
347.181
347.167
347.138
347.091
347.025
346.94
346.836
346.734
346.696
346.885
347.58
348.842
349.414
343.676
337.016
332.315
361.274
352.288
346.97
344.135
343.293
343.309
343.572
343.865
344.127
344.341
344.504
344.622
344.699
344.737
344.738
344.702
344.627
344.51
344.347
344.134
343.87
343.573
343.305
343.281
344.111
346.935
352.246
361.23
332.305
447.623
363.366
347.613
339.132
336.571
336
335.991
336.152
336.377
336.604
336.801
336.958
337.075
337.153
337.192
337.193
337.154
337.077
336.961
336.805
336.608
336.382
336.156
335.992
335.997
336.561
339.111
347.579
363.315
447.515
445.589
362.34
346.734
337.667
334.432
333.395
333.118
333.097
333.168
333.26
333.347
333.423
333.483
333.524
333.545
333.544
333.523
333.481
333.42
333.344
333.256
333.165
333.094
333.117
333.396
334.436
337.677
346.752
362.37
445.69
331.918
360.314
352.423
346.65
342.719
340.92
340.377
340.403
340.637
340.915
341.172
341.384
341.544
341.65
341.703
341.702
341.649
341.542
341.381
341.168
340.911
340.634
340.402
340.379
340.927
342.733
346.67
352.452
360.358
331.955
335.938
343.223
349.506
349.063
347.095
345.58
344.904
344.781
344.901
345.086
345.264
345.408
345.514
345.583
345.616
345.616
345.581
345.512
345.405
345.261
345.085
344.901
344.785
344.912
345.593
347.115
349.09
349.541
343.26
335.965
333.817
340.075
345.292
347.702
347.889
347.397
347.005
346.846
346.84
346.898
346.971
347.034
347.083
347.114
347.129
347.129
347.113
347.081
347.033
346.97
346.9
346.844
346.854
347.018
347.415
347.914
347.732
345.323
340.102
333.834
333.766
339.608
343.987
346.588
347.575
347.727
347.646
347.568
347.543
347.554
347.581
347.609
347.631
347.646
347.653
347.653
347.646
347.631
347.609
347.583
347.558
347.549
347.579
347.661
347.747
347.598
346.613
344.011
339.625
333.774
333.924
340.096
344.131
346.407
347.385
347.724
347.805
347.808
347.803
347.808
347.819
347.833
347.844
347.852
347.857
347.857
347.853
347.845
347.834
347.822
347.813
347.811
347.818
347.818
347.74
347.403
346.424
344.145
340.104
333.927
334.095
340.714
344.667
346.598
347.395
347.722
347.848
347.891
347.906
347.915
347.924
347.932
347.94
347.945
347.947
347.947
347.945
347.941
347.934
347.927
347.92
347.913
347.9
347.858
347.734
347.406
346.608
344.673
340.716
334.094
334.284
341.286
345.162
346.828
347.477
347.752
347.873
347.928
347.953
347.966
347.975
347.982
347.987
347.99
347.992
347.993
347.991
347.988
347.984
347.978
347.971
347.959
347.934
347.881
347.759
347.483
346.831
345.162
341.284
334.281
334.481
341.784
345.537
347.014
347.563
347.792
347.898
347.951
347.978
347.993
348.002
348.008
348.012
348.015
348.016
348.016
348.015
348.013
348.01
348.004
347.996
347.982
347.955
347.902
347.794
347.564
347.012
345.533
341.78
334.477
334.672
342.205
345.817
347.152
347.631
347.828
347.921
347.969
347.995
348.009
348.017
348.022
348.026
348.028
348.029
348.029
348.028
348.026
348.023
348.019
348.011
347.996
347.97
347.922
347.827
347.629
347.147
345.811
342.199
334.667
334.842
342.547
346.024
347.251
347.681
347.857
347.94
347.983
348.006
348.019
348.026
348.031
348.033
348.035
348.036
348.036
348.035
348.034
348.031
348.027
348.019
348.006
347.982
347.938
347.854
347.676
347.244
346.016
342.54
334.837
334.985
342.81
346.175
347.321
347.718
347.878
347.954
347.993
348.014
348.026
348.032
348.036
348.038
348.039
348.039
348.039
348.039
348.038
348.035
348.032
348.025
348.013
347.991
347.951
347.873
347.711
347.313
346.166
342.803
334.979
335.095
343.002
346.28
347.37
347.743
347.894
347.965
348.001
348.02
348.03
348.036
348.039
348.041
348.041
348.042
348.042
348.041
348.04
348.038
348.035
348.028
348.017
347.997
347.96
347.887
347.735
347.361
346.271
342.994
335.089
335.172
343.126
346.347
347.402
347.76
347.904
347.972
348.006
348.024
348.033
348.038
348.041
348.042
348.043
348.043
348.043
348.042
348.041
348.039
348.036
348.03
348.02
348.001
347.966
347.897
347.751
347.392
346.338
343.118
335.165
335.212
343.187
346.38
347.418
347.769
347.91
347.975
348.009
348.026
348.035
348.039
348.042
348.043
348.043
348.044
348.043
348.043
348.042
348.04
348.037
348.031
348.022
348.003
347.969
347.902
347.76
347.408
346.37
343.178
335.206
335.213
343.189
346.382
347.42
347.77
347.911
347.976
348.009
348.026
348.035
348.04
348.042
348.043
348.044
348.044
348.043
348.043
348.042
348.04
348.037
348.031
348.022
348.003
347.969
347.902
347.76
347.409
346.371
343.18
335.207
335.175
343.131
346.353
347.407
347.764
347.907
347.974
348.008
348.025
348.034
348.039
348.041
348.043
348.043
348.043
348.043
348.042
348.041
348.039
348.036
348.03
348.02
348.001
347.966
347.898
347.754
347.396
346.342
343.121
335.168
335.102
343.01
346.289
347.378
347.75
347.899
347.968
348.004
348.022
348.032
348.037
348.04
348.042
348.042
348.042
348.042
348.041
348.04
348.038
348.034
348.028
348.017
347.997
347.961
347.89
347.739
347.367
346.277
343
335.094
334.994
342.822
346.187
347.332
347.726
347.885
347.959
347.997
348.017
348.028
348.034
348.038
348.04
348.041
348.041
348.041
348.04
348.038
348.035
348.031
348.024
348.012
347.991
347.951
347.876
347.715
347.319
346.174
342.811
334.985
334.853
342.561
346.038
347.263
347.691
347.864
347.945
347.987
348.009
348.022
348.029
348.033
348.036
348.037
348.038
348.037
348.036
348.034
348.031
348.026
348.018
348.005
347.981
347.938
347.855
347.68
347.25
346.025
342.549
334.844
334.685
342.222
345.833
347.165
347.642
347.835
347.926
347.973
347.998
348.012
348.02
348.026
348.029
348.031
348.032
348.032
348.03
348.028
348.024
348.018
348.009
347.994
347.968
347.92
347.828
347.632
347.153
345.82
342.21
334.676
334.496
341.802
345.554
347.028
347.573
347.798
347.903
347.954
347.981
347.996
348.006
348.012
348.017
348.02
348.021
348.021
348.019
348.015
348.01
348.004
347.994
347.979
347.952
347.899
347.793
347.565
347.017
345.542
341.79
334.486
334.3
341.305
345.179
346.841
347.485
347.756
347.876
347.93
347.955
347.97
347.98
347.988
347.994
347.998
348
347.999
347.997
347.992
347.986
347.978
347.968
347.954
347.929
347.875
347.754
347.481
346.834
345.168
341.293
334.29
334.112
340.732
344.683
346.608
347.399
347.723
347.847
347.891
347.908
347.919
347.93
347.941
347.949
347.955
347.958
347.957
347.953
347.947
347.938
347.928
347.918
347.908
347.893
347.85
347.726
347.401
346.606
344.676
340.723
334.104
333.94
340.112
344.143
346.412
347.384
347.719
347.8
347.805
347.804
347.812
347.828
347.844
347.857
347.866
347.871
347.87
347.864
347.854
347.84
347.825
347.811
347.805
347.809
347.806
347.727
347.392
346.418
344.145
340.109
333.934
333.781
339.622
343.994
346.584
347.564
347.715
347.636
347.563
347.544
347.561
347.592
347.624
347.648
347.664
347.672
347.671
347.661
347.644
347.619
347.588
347.558
347.544
347.568
347.646
347.729
347.581
346.6
344.005
339.627
333.78
333.832
340.085
345.288
347.684
347.864
347.374
346.99
346.84
346.842
346.907
346.985
347.053
347.104
347.136
347.152
347.151
347.133
347.098
347.046
346.979
346.902
346.84
346.844
347.001
347.392
347.889
347.71
345.311
340.1
333.838
335.954
343.225
349.481
349.024
347.056
345.55
344.887
344.776
344.905
345.098
345.28
345.428
345.537
345.607
345.641
345.64
345.604
345.531
345.421
345.272
345.09
344.9
344.776
344.895
345.568
347.084
349.059
349.516
343.251
335.967
331.96
360.279
352.368
346.598
342.679
340.894
340.364
340.401
340.643
340.927
341.189
341.404
341.566
341.673
341.726
341.724
341.67
341.56
341.397
341.181
340.919
340.636
340.398
340.367
340.906
342.703
346.634
352.414
360.33
331.971
445.482
362.265
346.676
337.628
334.407
333.383
333.114
333.099
333.176
333.271
333.361
333.439
333.5
333.541
333.562
333.562
333.539
333.496
333.434
333.355
333.265
333.17
333.095
333.112
333.386
334.42
337.653
346.717
362.324
445.614
442.376
361.101
346.097
337.094
333.612
332.281
331.783
331.622
331.602
331.629
331.669
331.708
331.74
331.763
331.776
331.776
331.764
331.741
331.708
331.668
331.628
331.599
331.617
331.776
332.269
333.595
337.072
346.068
361.058
442.243
331.447
359.006
351.78
346.181
342.035
339.81
338.865
338.602
338.65
338.812
338.996
339.162
339.292
339.382
339.427
339.428
339.383
339.293
339.162
338.996
338.811
338.646
338.595
338.853
339.791
342.009
346.146
351.736
358.949
331.419
335.55
342.801
349.047
348.743
346.655
344.722
343.571
343.096
343.026
343.146
343.325
343.498
343.638
343.734
343.783
343.783
343.735
343.639
343.499
343.325
343.144
343.022
343.087
343.555
344.7
346.625
348.707
349.008
342.769
335.533
332.899
339.321
344.676
347.364
347.688
347.015
346.323
345.939
345.827
345.867
345.964
346.067
346.151
346.21
346.239
346.239
346.21
346.152
346.067
345.963
345.863
345.82
345.927
346.306
346.992
347.661
347.335
344.651
339.303
332.89
332.479
338.289
342.81
345.836
347.262
347.551
347.401
347.221
347.127
347.111
347.137
347.177
347.214
347.241
347.255
347.255
347.241
347.213
347.175
347.134
347.105
347.119
347.21
347.386
347.532
347.242
345.817
342.796
338.281
332.476
332.457
338.392
342.471
345.289
346.89
347.519
347.662
347.647
347.611
347.595
347.599
347.614
347.63
347.642
347.649
347.649
347.641
347.628
347.611
347.595
347.59
347.604
347.637
347.651
347.506
346.878
345.279
342.466
338.39
332.458
332.526
338.803
342.787
345.41
346.848
347.473
347.707
347.775
347.786
347.786
347.788
347.794
347.802
347.808
347.811
347.811
347.807
347.8
347.792
347.785
347.781
347.78
347.768
347.699
347.466
346.843
345.407
342.788
338.806
332.53
332.624
339.247
343.27
345.748
346.965
347.495
347.724
347.817
347.851
347.863
347.869
347.873
347.877
347.881
347.882
347.882
347.88
347.876
347.871
347.865
347.859
347.846
347.812
347.719
347.491
346.964
345.75
343.276
339.253
332.629
332.736
339.657
343.738
346.072
347.107
347.549
347.748
347.838
347.878
347.896
347.904
347.909
347.911
347.913
347.914
347.914
347.912
347.91
347.906
347.901
347.893
347.875
347.835
347.745
347.548
347.108
346.076
343.745
339.664
332.741
332.848
340.017
344.132
346.323
347.229
347.605
347.774
347.854
347.893
347.912
347.92
347.924
347.926
347.927
347.927
347.927
347.926
347.924
347.922
347.918
347.909
347.891
347.852
347.773
347.605
347.231
346.329
344.141
340.025
332.854
332.951
340.321
344.447
346.509
347.321
347.651
347.798
347.868
347.903
347.92
347.927
347.93
347.931
347.931
347.931
347.931
347.931
347.93
347.929
347.925
347.918
347.901
347.867
347.798
347.653
347.325
346.515
344.455
340.329
332.957
333.039
340.566
344.684
346.643
347.389
347.686
347.817
347.879
347.91
347.924
347.93
347.932
347.932
347.932
347.932
347.931
347.931
347.931
347.931
347.929
347.923
347.909
347.879
347.817
347.688
347.392
346.649
344.692
340.573
333.045
333.107
340.75
344.853
346.734
347.435
347.71
347.83
347.887
347.915
347.927
347.932
347.933
347.932
347.931
347.931
347.931
347.931
347.931
347.932
347.931
347.926
347.914
347.887
347.831
347.713
347.439
346.74
344.86
340.757
333.114
333.154
340.873
344.961
346.791
347.464
347.726
347.84
347.893
347.918
347.929
347.933
347.933
347.932
347.931
347.93
347.93
347.93
347.931
347.932
347.932
347.929
347.918
347.894
347.841
347.729
347.468
346.797
344.968
340.88
333.161
333.178
340.935
345.014
346.819
347.478
347.734
347.844
347.896
347.92
347.93
347.933
347.933
347.932
347.931
347.93
347.93
347.931
347.932
347.933
347.933
347.93
347.921
347.897
347.847
347.737
347.482
346.824
345.021
340.943
333.184
333.177
340.935
345.014
346.819
347.479
347.735
347.845
347.897
347.921
347.931
347.934
347.934
347.933
347.932
347.931
347.931
347.932
347.933
347.935
347.935
347.932
347.922
347.899
347.848
347.739
347.484
346.825
345.021
340.943
333.184
333.154
340.873
344.962
346.793
347.466
347.729
347.842
347.896
347.921
347.932
347.935
347.936
347.935
347.934
347.933
347.933
347.934
347.935
347.936
347.936
347.933
347.923
347.898
347.846
347.733
347.472
346.8
344.969
340.88
333.16
333.106
340.75
344.854
346.737
347.439
347.715
347.835
347.892
347.919
347.931
347.936
347.937
347.937
347.936
347.936
347.936
347.937
347.937
347.938
347.937
347.933
347.921
347.895
347.839
347.72
347.446
346.745
344.862
340.758
333.113
333.038
340.566
344.685
346.647
347.394
347.692
347.823
347.885
347.915
347.929
347.936
347.938
347.939
347.939
347.938
347.939
347.939
347.939
347.939
347.937
347.931
347.918
347.889
347.828
347.698
347.402
346.656
344.695
340.574
333.045
332.95
340.321
344.448
346.514
347.328
347.658
347.804
347.874
347.909
347.925
347.933
347.937
347.938
347.939
347.939
347.939
347.939
347.939
347.938
347.935
347.927
347.912
347.878
347.81
347.665
347.337
346.525
344.459
340.331
332.958
332.847
340.017
344.134
346.329
347.235
347.612
347.78
347.86
347.898
347.917
347.926
347.93
347.933
347.935
347.936
347.936
347.935
347.934
347.932
347.927
347.919
347.901
347.864
347.785
347.619
347.245
346.34
344.147
340.029
332.856
332.735
339.658
343.74
346.076
347.113
347.554
347.752
347.842
347.882
347.9
347.909
347.914
347.918
347.921
347.923
347.923
347.922
347.919
347.915
347.91
347.902
347.884
347.845
347.757
347.561
347.122
346.088
343.753
339.67
332.745
332.624
339.248
343.272
345.751
346.969
347.498
347.726
347.818
347.852
347.865
347.871
347.877
347.883
347.888
347.89
347.89
347.888
347.884
347.879
347.873
347.866
347.853
347.82
347.729
347.503
346.976
345.762
343.285
339.261
332.634
332.526
338.804
342.787
345.41
346.849
347.472
347.704
347.772
347.783
347.784
347.788
347.796
347.806
347.813
347.818
347.818
347.814
347.807
347.798
347.79
347.785
347.783
347.772
347.704
347.474
346.854
345.419
342.799
338.815
332.536
332.456
338.391
342.469
345.287
346.887
347.513
347.654
347.638
347.603
347.589
347.596
347.612
347.63
347.645
347.652
347.653
347.646
347.633
347.615
347.598
347.59
347.603
347.636
347.651
347.51
346.886
345.29
342.476
338.399
332.465
332.476
338.285
342.806
345.831
347.254
347.538
347.386
347.206
347.114
347.101
347.129
347.171
347.211
347.239
347.254
347.255
347.241
347.214
347.175
347.133
347.103
347.114
347.203
347.38
347.529
347.245
345.826
342.806
338.289
332.481
332.891
339.313
344.669
347.354
347.673
346.996
346.302
345.919
345.81
345.852
345.952
346.056
346.142
346.201
346.231
346.233
346.204
346.147
346.062
345.958
345.857
345.812
345.917
346.294
346.982
347.657
347.341
344.661
339.311
332.892
335.538
342.792
349.036
348.726
346.632
344.699
343.549
343.077
343.009
343.129
343.309
343.482
343.622
343.719
343.768
343.769
343.722
343.628
343.49
343.317
343.137
343.014
343.077
343.543
344.684
346.612
348.702
349.015
342.78
335.536
331.429
358.983
351.759
346.154
342.009
339.788
338.848
338.588
338.636
338.798
338.982
339.147
339.278
339.367
339.413
339.414
339.371
339.283
339.154
338.99
338.806
338.642
338.591
338.845
339.777
341.988
346.125
351.725
358.949
331.43
442.296
361.055
346.058
337.062
333.59
332.266
331.773
331.612
331.592
331.619
331.658
331.696
331.729
331.752
331.764
331.765
331.754
331.732
331.701
331.664
331.626
331.598
331.617
331.774
332.263
333.579
337.041
346.026
361.012
442.201
439.317
359.771
345.363
336.615
333.11
331.636
330.989
330.708
330.602
330.568
330.565
330.574
330.586
330.597
330.603
330.604
330.599
330.59
330.579
330.571
330.575
330.609
330.715
330.994
331.635
333.097
336.583
345.313
359.707
439.24
331.216
357.733
350.868
345.533
341.471
339.132
337.979
337.507
337.385
337.424
337.522
337.63
337.722
337.788
337.823
337.824
337.791
337.726
337.635
337.528
337.43
337.391
337.51
337.977
339.122
341.45
345.505
350.841
357.714
331.227
335.292
342.35
348.371
348.127
346.105
344.087
342.718
341.993
341.711
341.677
341.758
341.873
341.982
342.062
342.104
342.105
342.064
341.985
341.878
341.763
341.682
341.714
341.992
342.711
344.073
346.087
348.109
348.359
342.345