/*--------------------------------*- C++ -*----------------------------------*\
| =========                 |                                                 |
| \\      /  F ield         | OpenFOAM: The Open Source CFD Toolbox           |
|  \\    /   O peration     | Version:  2312                                  |
|   \\  /    A nd           | Website:  www.openfoam.com                      |
|    \\/     M anipulation  |                                                 |
\*---------------------------------------------------------------------------*/
FoamFile
{
    version     2.0;
    format      ascii;
    arch        "LSB;label=32;scalar=64";
    class       volVectorField;
    location    "300";
    object      U;
}
// * * * * * * * * * * * * * * * * * * * * * * * * * * * * * * * * * * * * * //

dimensions      [0 1 -1 0 0 0 0];

internalField   nonuniform List<vector> 
27000
(
(-4.95845e-05 9.21656e-05 0.107689)
(-0.000193211 0.000208225 0.0764773)
(-8.96236e-05 0.000217007 0.0818495)
(-5.87069e-05 0.00019631 0.0834268)
(-2.48697e-05 0.000191521 0.0852747)
(-5.43282e-06 0.000192858 0.0867173)
(8.00631e-06 0.000196277 0.0877922)
(1.70314e-05 0.000199837 0.0886517)
(2.21234e-05 0.000203319 0.0893698)
(2.37398e-05 0.000206562 0.0899445)
(2.26226e-05 0.000209543 0.090395)
(1.95184e-05 0.000212103 0.0907412)
(1.50257e-05 0.000214105 0.090993)
(9.61321e-06 0.000215467 0.0911568)
(3.6745e-06 0.000216171 0.0912371)
(-2.44516e-06 0.000216201 0.0912368)
(-8.40398e-06 0.000215562 0.0911557)
(-1.38554e-05 0.000214255 0.0909912)
(-1.84089e-05 0.000212312 0.0907386)
(-2.15937e-05 0.00020979 0.0903915)
(-2.28116e-05 0.000206852 0.0899403)
(-2.13266e-05 0.000203623 0.0893649)
(-1.63697e-05 0.00020016 0.0886465)
(-7.52877e-06 0.000196575 0.087787)
(5.74081e-06 0.000193064 0.0867124)
(2.51333e-05 0.000191715 0.0852708)
(5.86164e-05 0.000196222 0.0834244)
(9.01266e-05 0.000217076 0.0818494)
(0.00019308 0.000208485 0.0764791)
(5.03742e-05 9.217e-05 0.107698)
(0.000292607 -0.000130699 0.0627608)
(0.000132403 -5.84404e-05 0.0838551)
(0.00010765 0.000141413 0.091864)
(7.21354e-05 0.000196368 0.0945635)
(6.65035e-05 0.000223597 0.095834)
(6.81262e-05 0.000242116 0.0966879)
(6.89024e-05 0.000257266 0.0972962)
(6.79455e-05 0.000269976 0.0977459)
(6.47959e-05 0.000280285 0.0980894)
(5.92163e-05 0.000288488 0.0983516)
(5.14207e-05 0.000294886 0.0985489)
(4.18611e-05 0.000299763 0.0986948)
(3.10197e-05 0.000303284 0.0987982)
(1.93118e-05 0.000305587 0.0988643)
(7.09347e-06 0.000306744 0.0988962)
(-5.2983e-06 0.000306798 0.0988955)
(-1.75455e-05 0.000305744 0.0988622)
(-2.93124e-05 0.000303541 0.0987947)
(-4.02387e-05 0.000300104 0.09869)
(-4.9907e-05 0.000295305 0.098543)
(-5.78322e-05 0.000288956 0.0983449)
(-6.35498e-05 0.000280795 0.0980824)
(-6.68421e-05 0.000270483 0.0977391)
(-6.79084e-05 0.000257746 0.0972907)
(-6.72481e-05 0.000242516 0.0966846)
(-6.57245e-05 0.000223874 0.0958341)
(-7.13291e-05 0.000196675 0.0945675)
(-0.000106921 0.000141731 0.0918718)
(-0.0001313 -5.77349e-05 0.0838645)
(-0.00029129 -0.000129473 0.0627661)
(8.90154e-05 0.000147006 0.0806685)
(0.000120529 0.000161277 0.0901376)
(0.000164829 0.000207661 0.0970417)
(0.000155982 0.000236595 0.0986719)
(0.00013917 0.000256914 0.0991367)
(0.000125436 0.000272478 0.0993588)
(0.000113445 0.000285396 0.0995161)
(0.000102225 0.000296349 0.0996361)
(9.10461e-05 0.000305439 0.099729)
(7.92999e-05 0.000312701 0.0998007)
(6.66548e-05 0.000318306 0.0998549)
(5.31027e-05 0.000322472 0.0998951)
(3.87842e-05 0.000325423 0.0999235)
(2.38992e-05 0.00032732 0.0999415)
(8.67083e-06 0.000328275 0.09995)
(-6.68478e-06 0.000328346 0.0999492)
(-2.19423e-05 0.000327523 0.0999393)
(-3.68794e-05 0.000325757 0.0999199)
(-5.12771e-05 0.000322917 0.0998903)
(-6.49289e-05 0.000318845 0.0998494)
(-7.76841e-05 0.000313308 0.0997948)
(-8.95467e-05 0.000306083 0.0997236)
(-0.000100844 0.000296998 0.099632)
(-0.000112176 0.000286001 0.0995142)
(-0.000124289 0.000273013 0.0993601)
(-0.000138123 0.000257413 0.099142)
(-0.000155063 0.000237072 0.0986808)
(-0.000163904 0.000208275 0.0970522)
(-0.000119538 0.000162117 0.0901448)
(-8.79243e-05 0.000148166 0.0806697)
(0.00013524 6.79564e-05 0.0839828)
(0.00015012 0.000145481 0.0941018)
(0.000183214 0.000214311 0.0983944)
(0.000178982 0.000236536 0.0994722)
(0.00016614 0.000251363 0.0997709)
(0.000150329 0.000263196 0.0998753)
(0.00013424 0.000273528 0.0999317)
(0.000118656 0.000282746 0.099973)
(0.000103568 0.000290763 0.100005)
(8.86105e-05 0.000297424 0.100031)
(7.34592e-05 0.000302691 0.10005)
(5.79398e-05 0.000306649 0.100064)
(4.20181e-05 0.000309452 0.100074)
(2.57562e-05 0.00031125 0.10008)
(9.2646e-06 0.00031216 0.100083)
(-7.31335e-06 0.000312236 0.100082)
(-2.38269e-05 0.000311483 0.100078)
(-4.01365e-05 0.000309824 0.100071)
(-5.61221e-05 0.00030715 0.10006)
(-7.17201e-05 0.000303291 0.100046)
(-8.6962e-05 0.000298104 0.100027)
(-0.000102014 0.000291483 0.100003)
(-0.000117194 0.000283477 0.099972)
(-0.000132879 0.000274252 0.0999334)
(-0.00014907 0.000263894 0.0998801)
(-0.000164997 0.000252071 0.0997787)
(-0.00017791 0.000237303 0.099482)
(-0.000182219 0.000215182 0.0984039)
(-0.000149211 0.000146392 0.094107)
(-0.00013431 6.91007e-05 0.0839835)
(0.000133942 9.73933e-05 0.0864862)
(0.000171652 0.000155764 0.096034)
(0.00020237 0.000208422 0.0990662)
(0.000195387 0.000227503 0.0997388)
(0.000181996 0.000239286 0.0999378)
(0.000165411 0.000248517 0.100005)
(0.000147653 0.000256632 0.100033)
(0.000129916 0.000264078 0.100048)
(0.000112558 0.000270781 0.100059)
(9.5509e-05 0.00027656 0.100067)
(7.85675e-05 0.000281273 0.100073)
(6.15691e-05 0.0002849 0.100078)
(4.44231e-05 0.00028751 0.100081)
(2.71074e-05 0.000289202 0.100083)
(9.6624e-06 0.000290063 0.100083)
(-7.83489e-06 0.00029015 0.100083)
(-2.52984e-05 0.000289451 0.100081)
(-4.26488e-05 0.000287914 0.100079)
(-5.98447e-05 0.000285441 0.100075)
(-7.69044e-05 0.000281925 0.100071)
(-9.39117e-05 0.000277297 0.100065)
(-0.000111034 0.000271577 0.100058)
(-0.000128464 0.000264907 0.100049)
(-0.000146278 0.000257483 0.100037)
(-0.000164119 0.0002494 0.100012)
(-0.000180779 0.000240218 0.0999458)
(-0.000194244 0.000228528 0.0997475)
(-0.000201324 0.000209512 0.0990734)
(-0.000170746 0.000156841 0.0960371)
(-0.000133214 9.84847e-05 0.086486)
(0.00014318 9.63048e-05 0.0882933)
(0.000189935 0.000159153 0.0971488)
(0.000217987 0.000200206 0.0994224)
(0.000209036 0.000214084 0.0998787)
(0.000194289 0.000223056 0.100005)
(0.000176662 0.000230171 0.100046)
(0.000157786 0.000236581 0.100059)
(0.000138706 0.00024259 0.100062)
(0.000119864 0.000248138 0.100063)
(0.000101325 0.000253047 0.100063)
(8.30028e-05 0.000257164 0.100063)
(6.47856e-05 0.000260419 0.100063)
(4.65724e-05 0.000262809 0.100062)
(2.83112e-05 0.000264385 0.100062)
(9.9978e-06 0.0002652 0.100062)
(-8.34263e-06 0.00026529 0.100061)
(-2.66698e-05 0.000264649 0.100061)
(-4.49544e-05 0.000263239 0.100061)
(-6.3202e-05 0.000260993 0.100061)
(-8.146e-05 0.000257864 0.100062)
(-9.98291e-05 0.000253843 0.100063)
(-0.000118416 0.000249011 0.100064)
(-0.000137314 0.000243521 0.100065)
(-0.000156451 0.00023757 0.100063)
(-0.000175383 0.000231226 0.100053)
(-0.000193077 0.000224193 0.100013)
(-0.000207889 0.000215317 0.0998854)
(-0.00021693 0.000201507 0.0994272)
(-0.000189062 0.000160377 0.0971501)
(-0.000142542 9.73881e-05 0.0882926)
(0.000151685 9.37008e-05 0.0896521)
(0.000206208 0.000153211 0.0978515)
(0.000231236 0.000186645 0.0996305)
(0.000220669 0.000197385 0.0999604)
(0.00020462 0.000204193 0.100041)
(0.000185978 0.000209688 0.100062)
(0.000166183 0.000214745 0.100063)
(0.000146119 0.000219597 0.100059)
(0.000126186 0.000224172 0.100054)
(0.000106508 0.000228303 0.10005)
(8.70702e-05 0.00023185 0.100047)
(6.77992e-05 0.000234715 0.100044)
(4.86161e-05 0.000236863 0.100042)
(2.94616e-05 0.000238302 0.100041)
(1.03044e-05 0.00023906 0.10004)
(-8.85824e-06 0.000239153 0.10004)
(-2.80214e-05 0.000238578 0.10004)
(-4.71903e-05 0.000237309 0.100041)
(-6.63911e-05 0.000235317 0.100043)
(-8.56859e-05 0.000232586 0.100046)
(-0.00010515 0.000229153 0.100051)
(-0.00012486 0.000225115 0.100056)
(-0.000144827 0.000220624 0.100062)
(-0.000164931 0.000215856 0.100068)
(-0.000184775 0.000210889 0.100067)
(-0.000203465 0.000205498 0.100047)
(-0.000219579 0.000198789 0.0999651)
(-0.000230244 0.000188098 0.0996334)
(-0.000205391 0.000154544 0.0978519)
(-0.000151146 9.47488e-05 0.0896515)
(0.000159576 8.81941e-05 0.0906872)
(0.000220011 0.000142633 0.098326)
(0.000242266 0.000169677 0.0997639)
(0.000230429 0.000178205 0.100011)
(0.0002133 0.000183518 0.100062)
(0.000193814 0.000187818 0.100068)
(0.000173278 0.00019183 0.100061)
(0.000152449 0.00019574 0.100052)
(0.000131681 0.000199482 0.100044)
(0.00011111 0.000202923 0.100037)
(9.07565e-05 0.000205929 0.100033)
(7.05828e-05 0.000208401 0.100029)
(5.05295e-05 0.000210288 0.100027)
(3.05411e-05 0.000211574 0.100025)
(1.05814e-05 0.000212261 0.100024)
(-9.37162e-06 0.000212357 0.100024)
(-2.93333e-05 0.000211854 0.100025)
(-4.9324e-05 0.000210745 0.100026)
(-6.93824e-05 0.000209019 0.100029)
(-8.95619e-05 0.00020669 0.100033)
(-0.000109925 0.000203811 0.100039)
(-0.00013051 0.000200481 0.100046)
(-0.000151297 0.000196844 0.100055)
(-0.000172155 0.000193038 0.100065)
(-0.000192724 0.000189136 0.100072)
(-0.000212256 0.000184948 0.100066)
(-0.000229442 0.000179729 0.100014)
(-0.000241363 0.000171239 0.0997654)
(-0.000219269 0.000144042 0.098326)
(-0.000159107 8.92237e-05 0.0906868)
(0.000167115 8.03159e-05 0.0914954)
(0.000231756 0.000128563 0.0986629)
(0.000251438 0.000150402 0.0998565)
(0.00023848 0.000157227 0.100045)
(0.000220448 0.00016146 0.100075)
(0.000200277 0.000164865 0.10007)
(0.000179159 0.000168066 0.100058)
(0.000157744 0.000171209 0.100045)
(0.000136338 0.000174253 0.100035)
(0.000115072 0.000177087 0.100028)
(9.39824e-05 0.000179598 0.100023)
(7.30532e-05 0.000181694 0.100019)
(5.22435e-05 0.000183318 0.100016)
(3.15096e-05 0.000184439 0.100015)
(1.08157e-05 0.000185049 0.100014)
(-9.86558e-06 0.000185142 0.100014)
(-3.05562e-05 0.000184718 0.100015)
(-5.12836e-05 0.000183773 0.100016)
(-7.2085e-05 0.000182313 0.100019)
(-9.30061e-05 0.000180368 0.100023)
(-0.000114089 0.000177993 0.100029)
(-0.000135353 0.000175287 0.100037)
(-0.000156766 0.000172362 0.100048)
(-0.000178194 0.00016934 0.10006)
(-0.000199337 0.00016626 0.100073)
(-0.000219542 0.000162969 0.100077)
(-0.000237619 0.000158829 0.100047)
(-0.00025065 0.000152025 0.0998571)
(-0.000231099 0.000130018 0.0986628)
(-0.000166706 8.13397e-05 0.0914953)
(0.00017385 7.04626e-05 0.0921273)
(0.000241613 0.000111889 0.0989096)
(0.000258993 0.000129357 0.0999243)
(0.000245019 0.000134832 0.10007)
(0.000226199 0.000138234 0.100084)
(0.000205447 0.000140964 0.100071)
(0.000183878 0.000143533 0.100055)
(0.000162023 0.000146064 0.10004)
(0.000140141 0.000148526 0.100029)
(0.000118347 0.000150839 0.100021)
(9.66823e-05 0.000152909 0.100016)
(7.51424e-05 0.000154657 0.100013)
(5.37022e-05 0.000156026 0.100011)
(3.23302e-05 0.000156984 0.100009)
(1.0997e-05 0.000157512 0.100009)
(-1.03208e-05 0.000157602 0.100009)
(-3.16461e-05 0.000157253 0.100009)
(-5.30043e-05 0.000156468 0.10001)
(-7.44251e-05 0.000155262 0.100013)
(-9.5944e-05 0.000153666 0.100016)
(-0.000117588 0.000151741 0.100022)
(-0.000139367 0.000149564 0.10003)
(-0.000161241 0.000147234 0.100041)
(-0.000183096 0.000144834 0.100056)
(-0.000204676 0.000142392 0.100072)
(-0.000225448 0.000139779 0.100084)
(-0.000244303 0.000136463 0.10007)
(-0.000258329 0.000131004 0.0999242)
(-0.000241053 0.000113365 0.0989094)
(-0.000173501 7.14849e-05 0.0921273)
(0.000179569 5.91091e-05 0.0926101)
(0.000249657 9.32968e-05 0.0990903)
(0.000265061 0.000106971 0.0999746)
(0.000250179 0.000111307 0.100088)
(0.00023068 0.00011403 0.10009)
(0.000209455 0.000116236 0.100072)
(0.00018753 0.000118306 0.100052)
(0.000165347 0.00012034 0.100037)
(0.000143116 0.000122322 0.100026)
(0.000120933 0.00012419 0.100018)
(9.8833e-05 0.000125873 0.100013)
(7.68184e-05 0.000127305 0.10001)
(5.48752e-05 0.000128438 0.100008)
(3.2983e-05 0.000129236 0.100007)
(1.11224e-05 0.000129683 0.100007)
(-1.07241e-05 0.000129767 0.100007)
(-3.25738e-05 0.000129488 0.100007)
(-5.44445e-05 0.000128853 0.100008)
(-7.63597e-05 0.000127878 0.10001)
(-9.83414e-05 0.000126597 0.100013)
(-0.000120409 0.00012506 0.100018)
(-0.000142563 0.000123334 0.100026)
(-0.000164771 0.000121492 0.100037)
(-0.000186941 0.000119594 0.100052)
(-0.000208862 0.000117654 0.100072)
(-0.000230094 0.000115563 0.10009)
(-0.000249611 0.000112925 0.100088)
(-0.00026453 0.000108604 0.0999739)
(-0.000249199 9.4769e-05 0.09909)
(-0.000179281 6.01297e-05 0.0926102)
(0.000184183 4.66002e-05 0.0929684)
(0.000255959 7.32872e-05 0.0992202)
(0.000269754 8.35831e-05 0.100011)
(0.0002541 8.6919e-05 0.100102)
(0.000234033 8.90618e-05 0.100095)
(0.000212425 9.08238e-05 0.100073)
(0.000190223 9.24792e-05 0.100052)
(0.000167802 9.40997e-05 0.100035)
(0.000145325 9.56755e-05 0.100024)
(0.000122864 9.71612e-05 0.100016)
(0.000100449 9.85039e-05 0.100012)
(7.80824e-05 9.96516e-05 0.100009)
(5.57579e-05 0.000100564 0.100008)
(3.34656e-05 0.000101213 0.100007)
(1.11941e-05 0.000101579 0.100007)
(-1.10658e-05 0.000101655 0.100007)
(-3.33227e-05 0.000101439 0.100007)
(-5.55889e-05 0.00010094 0.100007)
(-7.78765e-05 0.000100174 0.100009)
(-0.000100201 9.91715e-05 0.100011)
(-0.000122572 9.79718e-05 0.100015)
(-0.00014499 9.66291e-05 0.100023)
(-0.000167432 9.51939e-05 0.100034)
(-0.000189825 9.37124e-05 0.10005)
(-0.000212009 9.21878e-05 0.100071)
(-0.000233611 9.0542e-05 0.100094)
(-0.000253682 8.84842e-05 0.1001)
(-0.000269355 8.51699e-05 0.10001)
(-0.000255608 7.4733e-05 0.0992196)
(-0.000183959 4.76121e-05 0.0929685)
(0.000187643 3.32367e-05 0.0932217)
(0.000260579 5.22551e-05 0.0993099)
(0.000273146 5.9463e-05 0.100037)
(0.000256888 6.18889e-05 0.100112)
(0.000236382 6.35097e-05 0.100099)
(0.000214477 6.48749e-05 0.100074)
(0.000192073 6.61652e-05 0.100052)
(0.000169485 6.74256e-05 0.100035)
(0.000146841 6.86464e-05 0.100023)
(0.000124195 6.97957e-05 0.100016)
(0.000101566 7.08342e-05 0.100012)
(7.8956e-05 7.17238e-05 0.10001)
(5.63641e-05 7.24336e-05 0.100009)
(3.37857e-05 7.29405e-05 0.100008)
(1.12189e-05 7.32296e-05 0.100008)
(-1.13385e-05 7.32942e-05 0.100008)
(-3.38892e-05 7.31343e-05 0.100008)
(-5.6436e-05 7.27575e-05 0.100008)
(-7.8985e-05 7.21792e-05 0.100009)
(-0.000101544 7.14224e-05 0.100011)
(-0.000124119 7.05202e-05 0.100015)
(-0.000146712 6.95083e-05 0.100022)
(-0.000169307 6.84274e-05 0.100033)
(-0.000191856 6.73043e-05 0.100049)
(-0.00021423 6.61454e-05 0.100072)
(-0.000236116 6.48968e-05 0.100097)
(-0.000256615 6.33656e-05 0.10011)
(-0.000272877 6.09717e-05 0.100035)
(-0.000260334 5.36503e-05 0.0993088)
(-0.000187483 3.42304e-05 0.0932216)
(0.000189915 1.92954e-05 0.0933837)
(0.000263562 3.05428e-05 0.0993668)
(0.000275294 3.48529e-05 0.100055)
(0.000258621 3.64282e-05 0.10012)
(0.000237816 3.75568e-05 0.100103)
(0.000215712 3.85478e-05 0.100076)
(0.000193174 3.94976e-05 0.100053)
(0.000170482 4.04259e-05 0.100036)
(0.000147739 4.13224e-05 0.100024)
(0.000124984 4.21638e-05 0.100017)
(0.000102227 4.29224e-05 0.100013)
(7.94702e-05 4.35727e-05 0.100011)
(5.67132e-05 4.40919e-05 0.10001)
(3.39576e-05 4.44637e-05 0.10001)
(1.12056e-05 4.46778e-05 0.100009)
(-1.15393e-05 4.47289e-05 0.100009)
(-3.42729e-05 4.46185e-05 0.100009)
(-5.69941e-05 4.43532e-05 0.100009)
(-7.9703e-05 4.39449e-05 0.10001)
(-0.000102402 4.34119e-05 0.100011)
(-0.000125098 4.27763e-05 0.100015)
(-0.000147791 4.20645e-05 0.100021)
(-0.000170476 4.13013e-05 0.100032)
(-0.000193117 4.05074e-05 0.100049)
(-0.000215616 3.96876e-05 0.100072)
(-0.000237691 3.88151e-05 0.100099)
(-0.00025848 3.77815e-05 0.100116)
(-0.000275146 3.62536e-05 0.100052)
(-0.000263419 3.18626e-05 0.0993651)
(-0.000189821 2.02586e-05 0.0933834)
(0.000190979 5.03635e-06 0.0934634)
(0.00026494 8.45705e-06 0.0993956)
(0.00027624 9.97627e-06 0.100065)
(0.000259355 1.07312e-05 0.100125)
(0.000238399 1.1381e-05 0.100107)
(0.000216197 1.20038e-05 0.100079)
(0.000193596 1.26198e-05 0.100055)
(0.000170859 1.32264e-05 0.100037)
(0.000148077 1.3811e-05 0.100026)
(0.000125278 1.43578e-05 0.100019)
(0.00010247 1.48494e-05 0.100015)
(7.96523e-05 1.52696e-05 0.100013)
(5.68259e-05 1.56054e-05 0.100012)
(3.39939e-05 1.58462e-05 0.100011)
(1.11617e-05 1.59857e-05 0.100011)
(-1.16639e-05 1.60221e-05 0.100011)
(-3.44769e-05 1.59568e-05 0.10001)
(-5.7272e-05 1.57952e-05 0.10001)
(-8.00471e-05 1.55469e-05 0.100011)
(-0.000102803 1.52231e-05 0.100012)
(-0.000125544 1.48385e-05 0.100016)
(-0.000148275 1.44085e-05 0.100022)
(-0.000170993 1.3948e-05 0.100033)
(-0.000193673 1.34697e-05 0.10005)
(-0.000216227 1.29808e-05 0.100074)
(-0.000238395 1.24773e-05 0.100102)
(-0.000259329 1.19294e-05 0.100121)
(-0.000276201 1.12381e-05 0.100061)
(-0.000264891 9.67611e-06 0.0993931)
(-0.000190949 5.95605e-06 0.0934628)
(0.000190829 -9.29803e-06 0.0934649)
(0.000264737 -1.37154e-05 0.0993984)
(0.000276012 -1.49558e-05 0.100068)
(0.000259123 -1.50156e-05 0.100129)
(0.000238168 -1.48467e-05 0.10011)
(0.000215971 -1.45975e-05 0.100082)
(0.00019338 -1.432e-05 0.100057)
(0.000170655 -1.40391e-05 0.10004)
(0.000147888 -1.37675e-05 0.100028)
(0.000125107 -1.35156e-05 0.100021)
(0.000102318 -1.32906e-05 0.100017)
(7.95208e-05 -1.30989e-05 0.100015)
(5.67152e-05 -1.29462e-05 0.100013)
(3.39042e-05 -1.28364e-05 0.100013)
(1.10934e-05 -1.27713e-05 0.100013)
(-1.17108e-05 -1.27511e-05 0.100012)
(-3.4502e-05 -1.27733e-05 0.100012)
(-5.72751e-05 -1.28332e-05 0.100012)
(-8.0028e-05 -1.29256e-05 0.100012)
(-0.000102762 -1.30435e-05 0.100013)
(-0.000125481 -1.31811e-05 0.100017)
(-0.000148192 -1.33323e-05 0.100023)
(-0.000170892 -1.3492e-05 0.100035)
(-0.000193556 -1.3654e-05 0.100052)
(-0.000216099 -1.38097e-05 0.100076)
(-0.00023826 -1.39405e-05 0.100104)
(-0.000259191 -1.40021e-05 0.100123)
(-0.000276064 -1.3862e-05 0.100063)
(-0.00026477 -1.26238e-05 0.0993951)
(-0.00019086 -8.43783e-06 0.0934638)
(0.000189473 -2.34762e-05 0.0933882)
(0.000262962 -3.56954e-05 0.0993753)
(0.000274621 -3.97342e-05 0.100065)
(0.000257936 -4.06296e-05 0.10013)
(0.000237136 -4.0959e-05 0.100112)
(0.000215048 -4.10977e-05 0.100084)
(0.000192536 -4.11747e-05 0.10006)
(0.00016988 -4.12337e-05 0.100042)
(0.000147183 -4.129e-05 0.10003)
(0.000124479 -4.13451e-05 0.100023)
(0.000101778 -4.13969e-05 0.100018)
(7.90808e-05 -4.1442e-05 0.100016)
(5.63852e-05 -4.14776e-05 0.100015)
(3.3692e-05 -4.15022e-05 0.100014)
(1.10031e-05 -4.15137e-05 0.100014)
(-1.16778e-05 -4.151e-05 0.100014)
(-3.4347e-05 -4.14877e-05 0.100013)
(-5.70031e-05 -4.14439e-05 0.100013)
(-7.96465e-05 -4.13754e-05 0.100013)
(-0.000102281 -4.12815e-05 0.100015)
(-0.000124912 -4.11637e-05 0.100018)
(-0.000147546 -4.10262e-05 0.100025)
(-0.000170176 -4.08737e-05 0.100037)
(-0.000192773 -4.07079e-05 0.100054)
(-0.000215237 -4.0518e-05 0.100078)
(-0.000237291 -4.02647e-05 0.100105)
(-0.000258071 -3.98253e-05 0.100123)
(-0.000274741 -3.8835e-05 0.100058)
(-0.000263061 -3.47595e-05 0.0993709)
(-0.000189556 -2.26985e-05 0.0933866)
(0.000186929 -3.72586e-05 0.093229)
(0.000259612 -5.72005e-05 0.0993237)
(0.00027206 -6.41519e-05 0.100053)
(0.000255783 -6.59314e-05 0.100128)
(0.000235287 -6.67895e-05 0.100114)
(0.000213408 -6.73431e-05 0.100087)
(0.000191045 -6.77993e-05 0.100063)
(0.000168514 -6.82261e-05 0.100045)
(0.000145942 -6.86366e-05 0.100032)
(0.000123378 -6.90238e-05 0.100025)
(0.000100838 -6.93733e-05 0.10002)
(7.83234e-05 -6.9671e-05 0.100018)
(5.58302e-05 -6.9907e-05 0.100017)
(3.33535e-05 -7.00729e-05 0.100016)
(1.089e-05 -7.01643e-05 0.100016)
(-1.15631e-05 -7.01764e-05 0.100015)
(-3.40083e-05 -7.01063e-05 0.100015)
(-5.64495e-05 -6.99505e-05 0.100015)
(-7.88929e-05 -6.97095e-05 0.100015)
(-0.000101347 -6.93875e-05 0.100017)
(-0.000123821 -6.8994e-05 0.10002)
(-0.000146317 -6.85443e-05 0.100027)
(-0.000168826 -6.8055e-05 0.100039)
(-0.000191301 -6.7537e-05 0.100056)
(-0.00021362 -6.69806e-05 0.10008)
(-0.000235469 -6.63212e-05 0.100106)
(-0.000255951 -6.53544e-05 0.10012)
(-0.000272221 -6.34713e-05 0.100046)
(-0.000259753 -5.6447e-05 0.0993182)
(-0.000187052 -3.65874e-05 0.0932267)
(0.000183228 -5.03889e-05 0.0929785)
(0.000254672 -7.79305e-05 0.0992389)
(0.000268306 -8.79975e-05 0.100032)
(0.000252629 -9.07357e-05 0.100122)
(0.000232576 -9.21733e-05 0.100113)
(0.000211001 -9.3181e-05 0.100089)
(0.000188854 -9.40576e-05 0.100066)
(0.000166507 -9.4894e-05 0.100048)
(0.000144121 -9.57008e-05 0.100035)
(0.000121766 -9.64574e-05 0.100027)
(9.94676e-05 -9.71361e-05 0.100022)
(7.72267e-05 -9.77113e-05 0.10002)
(5.50352e-05 -9.81636e-05 0.100019)
(3.28806e-05 -9.84813e-05 0.100018)
(1.07503e-05 -9.86562e-05 0.100018)
(-1.13665e-05 -9.86837e-05 0.100017)
(-3.348e-05 -9.85583e-05 0.100017)
(-5.56028e-05 -9.82796e-05 0.100017)
(-7.77494e-05 -9.7847e-05 0.100017)
(-9.99346e-05 -9.72712e-05 0.100019)
(-0.000122172 -9.65695e-05 0.100023)
(-0.000144464 -9.57695e-05 0.10003)
(-0.000166791 -9.4903e-05 0.100042)
(-0.000189088 -9.39933e-05 0.100059)
(-0.000211196 -9.30335e-05 0.100082)
(-0.000232748 -9.19341e-05 0.100105)
(-0.000252794 -9.03978e-05 0.100114)
(-0.000268474 -8.75528e-05 0.100024)
(-0.000254828 -7.73843e-05 0.0992324)
(-0.000183376 -4.98464e-05 0.0929756)
(0.000178417 -6.25951e-05 0.0926228)
(0.000248113 -9.75552e-05 0.0991131)
(0.000263322 -0.000111043 0.0999996)
(0.00024841 -0.000114851 0.100112)
(0.000228927 -0.000116942 0.100111)
(0.000207742 -0.000118466 0.100089)
(0.000185878 -0.000119826 0.100068)
(0.000163778 -0.000121134 0.10005)
(0.000141651 -0.000122396 0.100038)
(0.000119589 -0.000123574 0.10003)
(9.76259e-05 -0.000124623 0.100025)
(7.57629e-05 -0.000125506 0.100023)
(5.39825e-05 -0.000126196 0.100022)
(3.22618e-05 -0.000126677 0.100021)
(1.05784e-05 -0.00012694 0.100021)
(-1.10877e-05 -0.00012698 0.10002)
(-3.27578e-05 -0.000126793 0.10002)
(-5.44519e-05 -0.000126374 0.10002)
(-7.61938e-05 -0.000125728 0.10002)
(-9.80099e-05 -0.000124863 0.100022)
(-0.000119918 -0.000123809 0.100026)
(-0.000141924 -0.000122606 0.100034)
(-0.000163998 -0.000121302 0.100045)
(-0.000186051 -0.00011994 0.100062)
(-0.000207883 -0.000118518 0.100083)
(-0.000229051 -0.000116922 0.100103)
(-0.000248535 -0.00011475 0.100103)
(-0.00026346 -0.000110844 0.0999908)
(-0.000248252 -9.72349e-05 0.0991059)
(-0.000178569 -6.22024e-05 0.0926193)
(0.000172556 -7.35828e-05 0.0921423)
(0.000239893 -0.000115696 0.0989355)
(0.000257043 -0.000133039 0.0999516)
(0.000243032 -0.000138077 0.100094)
(0.000224226 -0.000140936 0.100104)
(0.000203511 -0.000143068 0.100088)
(0.000182002 -0.000144999 0.100069)
(0.00016023 -0.000146867 0.100053)
(0.000138453 -0.000148661 0.100042)
(0.000116788 -0.000150325 0.100034)
(9.52749e-05 -0.000151796 0.10003)
(7.39072e-05 -0.000153022 0.100028)
(5.26573e-05 -0.000153972 0.100027)
(3.14896e-05 -0.000154627 0.100027)
(1.03704e-05 -0.000154982 0.100026)
(-1.07316e-05 -0.000155033 0.100026)
(-3.18412e-05 -0.000154775 0.100025)
(-5.29904e-05 -0.000154202 0.100025)
(-7.42127e-05 -0.000153313 0.100025)
(-9.55422e-05 -0.000152121 0.100027)
(-0.000117012 -0.00015066 0.100031)
(-0.000138628 -0.000148983 0.100038)
(-0.000160357 -0.000147163 0.10005)
(-0.000182088 -0.000145259 0.100065)
(-0.000203567 -0.000143287 0.100083)
(-0.000224267 -0.000141111 0.100098)
(-0.000243081 -0.000138197 0.100087)
(-0.000257113 -0.000133084 0.0999429)
(-0.00023998 -0.000115612 0.0989278)
(-0.00017269 -7.33604e-05 0.0921382)
(0.000165747 -8.30193e-05 0.0915124)
(0.000229947 -0.000131873 0.0986904)
(0.000249366 -0.000153678 0.099884)
(0.000236356 -0.000160175 0.100069)
(0.000218327 -0.000163964 0.100093)
(0.000198181 -0.000166857 0.100085)
(0.000177107 -0.000169493 0.10007)
(0.000155763 -0.000172034 0.100057)
(0.000134457 -0.000174459 0.100047)
(0.000113319 -0.000176688 0.100041)
(9.23916e-05 -0.000178636 0.100038)
(7.16537e-05 -0.000180243 0.100036)
(5.10618e-05 -0.000181471 0.100036)
(3.05666e-05 -0.000182311 0.100035)
(1.01228e-05 -0.000182759 0.100035)
(-1.03025e-05 -0.000182819 0.100034)
(-3.07429e-05 -0.000182482 0.100034)
(-5.12306e-05 -0.00018174 0.100033)
(-7.18076e-05 -0.000180583 0.100034)
(-9.2524e-05 -0.000179023 0.100035)
(-0.00011342 -0.000177093 0.100038)
(-0.000134519 -0.000174861 0.100045)
(-0.000155785 -0.000172418 0.100054)
(-0.000177087 -0.000169855 0.100067)
(-0.00019813 -0.000167199 0.100081)
(-0.000218261 -0.000164287 0.100089)
(-0.000236295 -0.00016048 0.100062)
(-0.000249332 -0.000153942 0.0998762)
(-0.000229945 -0.000132024 0.0986828)
(-0.000165831 -8.29839e-05 0.0915078)
(0.000158214 -9.04384e-05 0.090706)
(0.000218209 -0.000145432 0.0983531)
(0.000240157 -0.000172561 0.0997887)
(0.000228243 -0.000180884 0.10003)
(0.000211089 -0.000185857 0.100076)
(0.0001916 -0.000189724 0.100078)
(0.000171082 -0.000193237 0.10007)
(0.000150301 -0.000196596 0.100061)
(0.000129617 -0.000199768 0.100055)
(0.000109174 -0.000202645 0.100051)
(8.89899e-05 -0.000205128 0.10005)
(6.90287e-05 -0.000207146 0.100049)
(4.92239e-05 -0.000208668 0.100049)
(2.95106e-05 -0.000209694 0.100049)
(9.84243e-06 -0.000210235 0.100049)
(-9.81549e-06 -0.0002103 0.100048)
(-2.94884e-05 -0.000209882 0.100047)
(-4.92075e-05 -0.00020896 0.100046)
(-6.90175e-05 -0.000207519 0.100046)
(-8.89761e-05 -0.000205552 0.100047)
(-0.000109148 -0.000203091 0.100049)
(-0.000129567 -0.000200212 0.100053)
(-0.000150216 -0.000197025 0.10006)
(-0.000170959 -0.00019365 0.100069)
(-0.000191439 -0.00019013 0.100077)
(-0.000210904 -0.00018627 0.100074)
(-0.000228055 -0.000181315 0.100027)
(-0.000239993 -0.000173003 0.099783)
(-0.000218083 -0.000145798 0.0983464)
(-0.000158215 -9.06057e-05 0.0907011)
(0.000150417 -9.54788e-05 0.0896716)
(0.000204499 -0.000155516 0.0978756)
(0.000229168 -0.000189189 0.0996495)
(0.000218468 -0.000199851 0.0999725)
(0.000202351 -0.000206412 0.100048)
(0.00018366 -0.000211542 0.100066)
(0.000163844 -0.000216148 0.100068)
(0.000143798 -0.000220496 0.100066)
(0.000123934 -0.000224538 0.100065)
(0.000104383 -0.00022815 0.100065)
(8.51301e-05 -0.000231216 0.100066)
(6.60982e-05 -0.000233665 0.100067)
(4.71988e-05 -0.000235483 0.100068)
(2.83611e-05 -0.000236688 0.100069)
(9.53851e-06 -0.000237317 0.100069)
(-9.28652e-06 -0.000237382 0.100068)
(-2.81222e-05 -0.000236883 0.100066)
(-4.69853e-05 -0.000235787 0.100065)
(-6.5913e-05 -0.000234053 0.100063)
(-8.49693e-05 -0.000231654 0.100062)
(-0.000104235 -0.00022861 0.100062)
(-0.000123785 -0.00022499 0.100063)
(-0.000143627 -0.000220929 0.100066)
(-0.000163637 -0.000216559 0.100069)
(-0.00018341 -0.000211948 0.100068)
(-0.000202061 -0.00020684 0.10005)
(-0.000218158 -0.000200333 0.0999724)
(-0.00022886 -0.000189734 0.0996468)
(-0.000204232 -0.000156054 0.0978705)
(-0.0001503 -9.58478e-05 0.0896668)
(0.000142068 -9.76273e-05 0.088311)
(0.000188379 -0.00016104 0.0971665)
(0.000215989 -0.000202488 0.0994326)
(0.000206844 -0.000216413 0.0998818)
(0.000191955 -0.000225203 0.100005)
(0.000174222 -0.000232 0.100045)
(0.000155275 -0.000237995 0.10006)
(0.000136187 -0.000243528 0.100068)
(0.000117407 -0.000248587 0.100074)
(9.90041e-05 -0.000253015 0.10008)
(8.08931e-05 -0.0002567 0.100085)
(6.29496e-05 -0.000259582 0.100089)
(4.50635e-05 -0.000261679 0.100092)
(2.71612e-05 -0.000263051 0.100094)
(9.22574e-06 -0.00026375 0.100094)
(-8.73354e-06 -0.000263819 0.100093)
(-2.66954e-05 -0.000263244 0.100091)
(-4.46409e-05 -0.000261985 0.100088)
(-6.25849e-05 -0.000259969 0.100084)
(-8.05875e-05 -0.000257137 0.10008)
(-9.87467e-05 -0.000253467 0.100076)
(-0.000117177 -0.000249024 0.100072)
(-0.00013596 -0.00024393 0.100068)
(-0.000155025 -0.00023836 0.100062)
(-0.000173925 -0.000232345 0.100049)
(-0.000191606 -0.000225569 0.100009)
(-0.000206436 -0.000216851 0.0998855)
(-0.000215567 -0.000203042 0.0994338)
(-0.000187965 -0.000161668 0.0971643)
(-0.000141795 -9.82013e-05 0.0883071)
(0.000133062 -9.83091e-05 0.0865003)
(0.00017027 -0.000157341 0.0960428)
(0.00020045 -0.000210553 0.0990655)
(0.00019316 -0.000229749 0.0997322)
(0.000179555 -0.000241397 0.0999299)
(0.000162788 -0.000250327 0.1)
(0.000144927 -0.00025805 0.100033)
(0.000127168 -0.000265051 0.100055)
(0.000109883 -0.0002713 0.100073)
(9.30006e-05 -0.000276648 0.100088)
(7.63069e-05 -0.000280972 0.1001)
(5.96281e-05 -0.000284277 0.100109)
(4.28482e-05 -0.000286632 0.100115)
(2.59387e-05 -0.000288146 0.100118)
(8.91154e-06 -0.000288913 0.100119)
(-8.17084e-06 -0.000288977 0.100118)
(-2.52307e-05 -0.000288337 0.100115)
(-4.22112e-05 -0.00028693 0.100109)
(-5.90783e-05 -0.000284655 0.100102)
(-7.58541e-05 -0.000281399 0.100093)
(-9.26401e-05 -0.000277082 0.100082)
(-0.000109595 -0.000271707 0.100069)
(-0.000126919 -0.000265406 0.100053)
(-0.000144683 -0.000258338 0.100035)
(-0.000162513 -0.00025057 0.100005)
(-0.000179212 -0.000241635 0.0999367)
(-0.000192751 -0.000230056 0.0997395)
(-0.000199952 -0.00021101 0.099071)
(-0.000169759 -0.000157945 0.0960442)
(-0.000132579 -9.90625e-05 0.0864979)
(0.000134552 -6.86142e-05 0.0839915)
(0.000148813 -0.000146936 0.0941002)
(0.000181276 -0.000216364 0.0983826)
(0.000176633 -0.000238752 0.0994575)
(0.000163486 -0.000253421 0.0997589)
(0.000147459 -0.00026497 0.0998695)
(0.000131248 -0.000274925 0.099934)
(0.000115668 -0.000283729 0.0999838)
(0.000100695 -0.000291332 0.100024)
(8.59521e-05 -0.000297612 0.100056)
(7.10994e-05 -0.000302545 0.100081)
(5.59432e-05 -0.000306223 0.100099)
(4.04368e-05 -0.000308813 0.100111)
(2.4607e-05 -0.000310463 0.100119)
(8.56602e-06 -0.000311291 0.100122)
(-7.56644e-06 -0.000311355 0.10012)
(-2.3658e-05 -0.000310648 0.100115)
(-3.95702e-05 -0.000309102 0.100105)
(-5.51996e-05 -0.000306594 0.100091)
(-7.04957e-05 -0.000302957 0.100072)
(-8.54874e-05 -0.00029803 0.100048)
(-0.000100357 -0.000291716 0.100017)
(-0.000115428 -0.000284035 0.0999797)
(-0.000131061 -0.000275142 0.0999336)
(-0.000147283 -0.000265089 0.099873)
(-0.00016327 -0.000253498 0.099766)
(-0.000176337 -0.000238853 0.0994668)
(-0.000180877 -0.000216605 0.0983917)
(-0.000148308 -0.000147422 0.0941051)
(-0.00013403 -6.93311e-05 0.0839913)